File written on 12Feb2022 at 16:38:41 

calc_only_A  :  F

begin real_lattice
  -2.2500000   0.0000000   2.2500000
   0.0000000   2.2500000   2.2500000
  -2.2500000   2.2500000   0.0000000
end real_lattice

begin recip_lattice
  -1.3962634  -1.3962634   1.3962634
   1.3962634   1.3962634   1.3962634
  -1.3962634   1.3962634  -1.3962634
end recip_lattice

begin kpoints
   216
    0.00000000    0.00000000    0.00000000
    0.00000000    0.00000000    0.16666667
    0.00000000    0.00000000    0.33333333
    0.00000000    0.00000000   -0.50000000
    0.00000000    0.00000000   -0.33333333
    0.00000000    0.00000000   -0.16666667
    0.00000000    0.16666667    0.00000000
    0.00000000    0.16666667    0.16666667
    0.00000000    0.16666667    0.33333333
    0.00000000    0.16666667   -0.50000000
    0.00000000    0.16666667   -0.33333333
    0.00000000    0.16666667   -0.16666667
    0.00000000    0.33333333    0.00000000
    0.00000000    0.33333333    0.16666667
    0.00000000    0.33333333    0.33333333
    0.00000000    0.33333333   -0.50000000
    0.00000000    0.33333333   -0.33333333
    0.00000000    0.33333333   -0.16666667
    0.00000000   -0.50000000    0.00000000
    0.00000000   -0.50000000    0.16666667
    0.00000000   -0.50000000    0.33333333
    0.00000000   -0.50000000   -0.50000000
    0.00000000    0.50000000   -0.33333333
    0.00000000    0.50000000   -0.16666667
    0.00000000   -0.33333333    0.00000000
    0.00000000   -0.33333333    0.16666667
    0.00000000   -0.33333333    0.33333333
    0.00000000   -0.33333333    0.50000000
    0.00000000   -0.33333333   -0.33333333
    0.00000000   -0.33333333   -0.16666667
    0.00000000   -0.16666667    0.00000000
    0.00000000   -0.16666667    0.16666667
    0.00000000   -0.16666667    0.33333333
    0.00000000   -0.16666667    0.50000000
    0.00000000   -0.16666667   -0.33333333
    0.00000000   -0.16666667   -0.16666667
    0.16666667    0.00000000    0.00000000
    0.16666667    0.00000000    0.16666667
    0.16666667    0.00000000    0.33333333
    0.16666667    0.00000000   -0.50000000
    0.16666667    0.00000000   -0.33333333
    0.16666667    0.00000000   -0.16666667
    0.16666667    0.16666667    0.00000000
    0.16666667    0.16666667    0.16666667
    0.16666667    0.16666667    0.33333333
    0.16666667    0.16666667    0.50000000
    0.16666667    0.16666667    0.66666667
    0.16666667    0.16666667   -0.16666667
    0.16666667    0.33333333    0.00000000
    0.16666667    0.33333333    0.16666667
    0.16666667    0.33333333    0.33333333
    0.16666667    0.33333333   -0.50000000
    0.16666667    0.33333333   -0.33333333
    0.16666667    0.33333333    0.83333333
    0.16666667   -0.50000000    0.00000000
    0.16666667    0.50000000    0.16666667
    0.16666667   -0.50000000    0.33333333
   -0.83333333   -0.50000000   -0.50000000
    0.16666667   -0.50000000   -0.33333333
    0.16666667    0.50000000   -0.16666667
    0.16666667   -0.33333333    0.00000000
    0.16666667    0.66666667    0.16666667
    0.16666667   -0.33333333    0.33333333
    0.16666667   -0.33333333   -0.50000000
   -0.83333333   -0.33333333   -0.33333333
    0.16666667    0.66666667   -0.16666667
    0.16666667   -0.16666667    0.00000000
    0.16666667   -0.16666667    0.16666667
    0.16666667   -0.16666667   -0.66666667
    0.16666667   -0.16666667    0.50000000
    0.16666667   -0.16666667    0.66666667
    0.16666667   -0.16666667   -0.16666667
    0.33333333    0.00000000    0.00000000
    0.33333333    0.00000000    0.16666667
    0.33333333    0.00000000    0.33333333
    0.33333333    0.00000000   -0.50000000
    0.33333333    0.00000000   -0.33333333
    0.33333333    0.00000000   -0.16666667
    0.33333333    0.16666667    0.00000000
    0.33333333    0.16666667    0.16666667
    0.33333333    0.16666667    0.33333333
    0.33333333    0.16666667   -0.50000000
    0.33333333    0.16666667   -0.33333333
   -0.66666667    0.16666667   -0.16666667
    0.33333333    0.33333333    0.00000000
    0.33333333    0.33333333    0.16666667
    0.33333333    0.33333333    0.33333333
    0.33333333    0.33333333    0.50000000
    0.33333333    0.33333333    0.66666667
    0.33333333    0.33333333    0.83333333
    0.33333333   -0.50000000    0.00000000
    0.33333333   -0.50000000    0.16666667
    0.33333333    0.50000000    0.33333333
   -0.66666667   -0.50000000   -0.50000000
   -0.66666667   -0.50000000   -0.33333333
   -0.66666667   -0.50000000   -0.16666667
    0.33333333   -0.33333333    0.00000000
    0.33333333    0.66666667    0.16666667
    0.33333333    0.66666667    0.33333333
   -0.66666667   -0.33333333   -0.50000000
   -0.66666667   -0.33333333   -0.33333333
   -0.66666667   -0.33333333   -0.16666667
    0.33333333   -0.16666667    0.00000000
    0.33333333    0.83333333    0.16666667
    0.33333333    0.83333333    0.33333333
    0.33333333   -0.16666667    0.50000000
   -0.66666667   -0.16666667   -0.33333333
   -0.66666667   -0.16666667   -0.16666667
   -0.50000000    0.00000000    0.00000000
   -0.50000000    0.00000000    0.16666667
   -0.50000000    0.00000000    0.33333333
    0.50000000    0.00000000    0.50000000
    0.50000000    0.00000000   -0.33333333
    0.50000000    0.00000000   -0.16666667
   -0.50000000    0.16666667    0.00000000
    0.50000000    0.16666667    0.16666667
   -0.50000000   -0.83333333   -0.66666667
   -0.50000000   -0.83333333   -0.50000000
   -0.50000000    0.16666667   -0.33333333
    0.50000000    0.16666667   -0.16666667
   -0.50000000    0.33333333    0.00000000
   -0.50000000    0.33333333    0.16666667
    0.50000000    0.33333333    0.33333333
   -0.50000000   -0.66666667   -0.50000000
   -0.50000000   -0.66666667   -0.33333333
   -0.50000000   -0.66666667   -0.16666667
   -0.50000000   -0.50000000    0.00000000
   -0.50000000   -0.50000000   -0.83333333
   -0.50000000   -0.50000000   -0.66666667
    0.50000000    0.50000000    0.50000000
    0.50000000    0.50000000    0.66666667
    0.50000000    0.50000000    0.83333333
    0.50000000   -0.33333333    0.00000000
    0.50000000    0.66666667    0.16666667
    0.50000000    0.66666667    0.33333333
    0.50000000    0.66666667    0.50000000
   -0.50000000   -0.33333333   -0.33333333
    0.50000000   -0.33333333   -0.16666667
    0.50000000   -0.16666667    0.00000000
   -0.50000000   -0.16666667    0.16666667
    0.50000000   -0.16666667    0.33333333
    0.50000000    0.83333333    0.50000000
    0.50000000    0.83333333    0.66666667
   -0.50000000   -0.16666667   -0.16666667
   -0.33333333    0.00000000    0.00000000
   -0.33333333    0.00000000    0.16666667
   -0.33333333    0.00000000    0.33333333
   -0.33333333    0.00000000    0.50000000
   -0.33333333    0.00000000   -0.33333333
   -0.33333333    0.00000000   -0.16666667
   -0.33333333    0.16666667    0.00000000
    0.66666667    0.16666667    0.16666667
    0.66666667    0.16666667    0.33333333
   -0.33333333    0.16666667   -0.50000000
   -0.33333333   -0.83333333   -0.33333333
   -0.33333333   -0.83333333   -0.16666667
   -0.33333333    0.33333333    0.00000000
    0.66666667    0.33333333    0.16666667
    0.66666667    0.33333333    0.33333333
    0.66666667    0.33333333    0.50000000
   -0.33333333   -0.66666667   -0.33333333
   -0.33333333   -0.66666667   -0.16666667
   -0.33333333    0.50000000    0.00000000
    0.66666667    0.50000000    0.16666667
    0.66666667    0.50000000    0.33333333
    0.66666667    0.50000000    0.50000000
   -0.33333333   -0.50000000   -0.33333333
   -0.33333333    0.50000000   -0.16666667
   -0.33333333   -0.33333333    0.00000000
   -0.33333333   -0.33333333   -0.83333333
   -0.33333333   -0.33333333   -0.66666667
   -0.33333333   -0.33333333   -0.50000000
   -0.33333333   -0.33333333   -0.33333333
   -0.33333333   -0.33333333   -0.16666667
   -0.33333333   -0.16666667    0.00000000
    0.66666667   -0.16666667    0.16666667
   -0.33333333   -0.16666667    0.33333333
   -0.33333333   -0.16666667    0.50000000
   -0.33333333   -0.16666667   -0.33333333
   -0.33333333   -0.16666667   -0.16666667
   -0.16666667    0.00000000    0.00000000
   -0.16666667    0.00000000    0.16666667
   -0.16666667    0.00000000    0.33333333
   -0.16666667    0.00000000    0.50000000
   -0.16666667    0.00000000   -0.33333333
   -0.16666667    0.00000000   -0.16666667
   -0.16666667    0.16666667    0.00000000
   -0.16666667    0.16666667    0.16666667
   -0.16666667    0.16666667   -0.66666667
   -0.16666667    0.16666667   -0.50000000
   -0.16666667    0.16666667    0.66666667
   -0.16666667    0.16666667   -0.16666667
   -0.16666667    0.33333333    0.00000000
   -0.16666667   -0.66666667    0.16666667
    0.83333333    0.33333333    0.33333333
   -0.16666667    0.33333333    0.50000000
   -0.16666667    0.33333333   -0.33333333
   -0.16666667   -0.66666667   -0.16666667
   -0.16666667    0.50000000    0.00000000
   -0.16666667   -0.50000000    0.16666667
   -0.16666667    0.50000000    0.33333333
    0.83333333    0.50000000    0.50000000
   -0.16666667    0.50000000   -0.33333333
   -0.16666667   -0.50000000   -0.16666667
   -0.16666667   -0.33333333    0.00000000
   -0.16666667   -0.33333333   -0.83333333
   -0.16666667   -0.33333333    0.33333333
   -0.16666667   -0.33333333    0.50000000
   -0.16666667   -0.33333333   -0.33333333
   -0.16666667   -0.33333333   -0.16666667
   -0.16666667   -0.16666667    0.00000000
   -0.16666667   -0.16666667    0.16666667
   -0.16666667   -0.16666667   -0.66666667
   -0.16666667   -0.16666667   -0.50000000
   -0.16666667   -0.16666667   -0.33333333
   -0.16666667   -0.16666667   -0.16666667
end kpoints

begin projections
     9
   0.00000    0.00000    0.00000     0  1  1
    0.0000000  0.0000000  1.0000000   1.0000000  0.0000000  0.0000000    1.00
   0.00000    0.00000    0.00000     2  1  1
    0.0000000  0.0000000  1.0000000   1.0000000  0.0000000  0.0000000    1.00
   0.00000    0.00000    0.00000     2  2  1
    0.0000000  0.0000000  1.0000000   1.0000000  0.0000000  0.0000000    1.00
   0.00000    0.00000    0.00000     2  3  1
    0.0000000  0.0000000  1.0000000   1.0000000  0.0000000  0.0000000    1.00
   0.00000    0.00000    0.00000     2  4  1
    0.0000000  0.0000000  1.0000000   1.0000000  0.0000000  0.0000000    1.00
   0.00000    0.00000    0.00000     2  5  1
    0.0000000  0.0000000  1.0000000   1.0000000  0.0000000  0.0000000    1.00
   0.50000    0.50000    0.50000     1  1  1
    0.0000000  0.0000000  1.0000000   1.0000000  0.0000000  0.0000000    1.00
   0.50000    0.50000    0.50000     1  2  1
    0.0000000  0.0000000  1.0000000   1.0000000  0.0000000  0.0000000    1.00
   0.50000    0.50000    0.50000     1  3  1
    0.0000000  0.0000000  1.0000000   1.0000000  0.0000000  0.0000000    1.00
end projections

begin nnkpts
   8
     1     2      0   0   0
     1     6      0   0   0
     1     7      0   0   0
     1    31      0   0   0
     1    37      0   0   0
     1    44      0   0   0
     1   181      0   0   0
     1   216      0   0   0
     2     1      0   0   0
     2     3      0   0   0
     2     8      0   0   0
     2    32      0   0   0
     2    38      0   0   0
     2    45      0   0   0
     2   182      0   0   0
     2   211      0   0   0
     3     2      0   0   0
     3     9      0   0   0
     3    33      0   0   0
     3    39      0   0   0
     3    46      0   0   0
     3   183      0   0   0
     3   212      0   0   0
     3     4      0   0   1
     4     5      0   0   0
     4    10      0   0   0
     4    40      0   0   0
     4   213      0   0   0
     4     3      0   0  -1
     4    34      0   0  -1
     4    47      0   0  -1
     4   184      0   0  -1
     5     4      0   0   0
     5     6      0   0   0
     5    11      0   0   0
     5    35      0   0   0
     5    41      0   0   0
     5    48      0   0   0
     5   185      0   0   0
     5   214      0   0   0
     6     1      0   0   0
     6     5      0   0   0
     6    12      0   0   0
     6    36      0   0   0
     6    42      0   0   0
     6    43      0   0   0
     6   186      0   0   0
     6   215      0   0   0
     7     1      0   0   0
     7     8      0   0   0
     7    12      0   0   0
     7    13      0   0   0
     7    43      0   0   0
     7    50      0   0   0
     7   186      0   0   0
     7   187      0   0   0
     8     2      0   0   0
     8     7      0   0   0
     8     9      0   0   0
     8    14      0   0   0
     8    44      0   0   0
     8    51      0   0   0
     8   181      0   0   0
     8   188      0   0   0
     9     3      0   0   0
     9     8      0   0   0
     9    15      0   0   0
     9    45      0   0   0
     9   182      0   0   0
     9    10      0   0   1
     9    52      0   0   1
     9   189      0   0   1
    10     4      0   0   0
    10    11      0   0   0
    10    16      0   0   0
    10    53      0   0   0
    10   190      0   0   0
    10     9      0   0  -1
    10    46      0   0  -1
    10   183      0   0  -1
    11     5      0   0   0
    11    10      0   0   0
    11    12      0   0   0
    11    17      0   0   0
    11    47      0   0  -1
    11    54      0   0  -1
    11   184      0   0  -1
    11   191      0   0  -1
    12     6      0   0   0
    12     7      0   0   0
    12    11      0   0   0
    12    18      0   0   0
    12    48      0   0   0
    12    49      0   0   0
    12   185      0   0   0
    12   192      0   0   0
    13     7      0   0   0
    13    14      0   0   0
    13    18      0   0   0
    13    49      0   0   0
    13    56      0   0   0
    13   192      0   0   0
    13   193      0   0   0
    13    19      0   1   0
    14     8      0   0   0
    14    13      0   0   0
    14    15      0   0   0
    14    50      0   0   0
    14   187      0   0   0
    14    20      0   1   0
    14    57      0   1   0
    14   194      0   1   0
    15     9      0   0   0
    15    14      0   0   0
    15    51      0   0   0
    15   188      0   0   0
    15    58      1   1   1
    15    21      0   1   0
    15    16      0   0   1
    15   195     -1   0   0
    16    10      0   0   0
    16    17      0   0   0
    16    52      0   0   0
    16   189      0   0   0
    16    22      0   1   0
    16    59      0   1   0
    16    15      0   0  -1
    16   196      0   0  -1
    17    11      0   0   0
    17    16      0   0   0
    17    18      0   0   0
    17    23      0   0   0
    17    53      0   0   0
    17    60      0   0   0
    17   190      0   0   0
    17   197      0   0   0
    18    12      0   0   0
    18    13      0   0   0
    18    17      0   0   0
    18    24      0   0   0
    18    55      0   1   0
    18   198      0   1   0
    18    54      0   0  -1
    18   191      0   0  -1
    19    20      0   0   0
    19    25      0   0   0
    19    55      0   0   0
    19   198      0   0   0
    19    13      0  -1   0
    19    24      0  -1   0
    19    62      0  -1   0
    19   199      0  -1   0
    20    19      0   0   0
    20    21      0   0   0
    20    26      0   0   0
    20    63      0   0   0
    20   200      0   0   0
    20    14      0  -1   0
    20    56      0  -1   0
    20   193      0  -1   0
    21    20      0   0   0
    21    27      0   0   0
    21    57      0   0   0
    21   194      0   0   0
    21    22      0   0   1
    21    64      0   0   1
    21    15      0  -1   0
    21   201      0  -1   0
    22    58      1   0   0
    22    65      1   0   0
    22    21      0   0  -1
    22    28      0   0  -1
    22    16      0  -1   0
    22    23      0  -1   0
    22   195     -1  -1  -1
    22   202     -1  -1  -1
    23    17      0   0   0
    23    24      0   0   0
    23    66      0   0   0
    23   203      0   0   0
    23    22      0   1   0
    23    29      0   1   0
    23    59      0   1   0
    23   196      0   0  -1
    24    18      0   0   0
    24    23      0   0   0
    24    60      0   0   0
    24   197      0   0   0
    24    19      0   1   0
    24    30      0   1   0
    24    61      0   1   0
    24   204      0   1   0
    25    19      0   0   0
    25    26      0   0   0
    25    30      0   0   0
    25    31      0   0   0
    25    61      0   0   0
    25    68      0   0   0
    25   204      0   0   0
    25   205      0   0   0
    26    20      0   0   0
    26    25      0   0   0
    26    27      0   0   0
    26    32      0   0   0
    26    69      0   0   1
    26   206      0   0   1
    26    62      0  -1   0
    26   199      0  -1   0
    27    21      0   0   0
    27    26      0   0   0
    27    28      0   0   0
    27    33      0   0   0
    27    63      0   0   0
    27    70      0   0   0
    27   200      0   0   0
    27   207      0   0   0
    28    27      0   0   0
    28    34      0   0   0
    28    71      0   0   0
    28   208      0   0   0
    28    22      0   0   1
    28    29      0   0   1
    28    64      0   0   1
    28   201      0  -1   0
    29    30      0   0   0
    29    35      0   0   0
    29    72      0   0   0
    29   209      0   0   0
    29    65      1   0   0
    29    28      0   0  -1
    29    23      0  -1   0
    29   202     -1  -1  -1
    30    25      0   0   0
    30    29      0   0   0
    30    36      0   0   0
    30    67      0   0   0
    30   210      0   0   0
    30    24      0  -1   0
    30    66      0  -1   0
    30   203      0  -1   0
    31     1      0   0   0
    31    25      0   0   0
    31    32      0   0   0
    31    36      0   0   0
    31    38      0   0   0
    31    67      0   0   0
    31   210      0   0   0
    31   211      0   0   0
    32     2      0   0   0
    32    26      0   0   0
    32    31      0   0   0
    32    33      0   0   0
    32    39      0   0   0
    32    68      0   0   0
    32   205      0   0   0
    32   212      0   0   0
    33     3      0   0   0
    33    27      0   0   0
    33    32      0   0   0
    33    34      0   0   0
    33    40      0   0   1
    33    69      0   0   1
    33   206      0   0   1
    33   213      0   0   1
    34    28      0   0   0
    34    33      0   0   0
    34    70      0   0   0
    34   207      0   0   0
    34     4      0   0   1
    34    35      0   0   1
    34    41      0   0   1
    34   214      0   0   1
    35     5      0   0   0
    35    29      0   0   0
    35    36      0   0   0
    35    42      0   0   0
    35   215      0   0   0
    35    34      0   0  -1
    35    71      0   0  -1
    35   208      0   0  -1
    36     6      0   0   0
    36    30      0   0   0
    36    31      0   0   0
    36    35      0   0   0
    36    37      0   0   0
    36    72      0   0   0
    36   209      0   0   0
    36   216      0   0   0
    37     1      0   0   0
    37    36      0   0   0
    37    38      0   0   0
    37    42      0   0   0
    37    43      0   0   0
    37    67      0   0   0
    37    73      0   0   0
    37    80      0   0   0
    38     2      0   0   0
    38    31      0   0   0
    38    37      0   0   0
    38    39      0   0   0
    38    44      0   0   0
    38    68      0   0   0
    38    74      0   0   0
    38    81      0   0   0
    39     3      0   0   0
    39    32      0   0   0
    39    38      0   0   0
    39    45      0   0   0
    39    75      0   0   0
    39    40      0   0   1
    39    69      0   0   1
    39    82      0   0   1
    40     4      0   0   0
    40    41      0   0   0
    40    76      0   0   0
    40    83      0   0   0
    40    33      0   0  -1
    40    39      0   0  -1
    40    46      0   0  -1
    40    70      0   0  -1
    41     5      0   0   0
    41    40      0   0   0
    41    42      0   0   0
    41    77      0   0   0
    41    84      1   0   0
    41    34      0   0  -1
    41    47      0   0  -1
    41    71      0   0  -1
    42     6      0   0   0
    42    35      0   0   0
    42    37      0   0   0
    42    41      0   0   0
    42    48      0   0   0
    42    72      0   0   0
    42    78      0   0   0
    42    79      0   0   0
    43     6      0   0   0
    43     7      0   0   0
    43    37      0   0   0
    43    44      0   0   0
    43    48      0   0   0
    43    49      0   0   0
    43    79      0   0   0
    43    86      0   0   0
    44     1      0   0   0
    44     8      0   0   0
    44    38      0   0   0
    44    43      0   0   0
    44    45      0   0   0
    44    50      0   0   0
    44    80      0   0   0
    44    87      0   0   0
    45     2      0   0   0
    45     9      0   0   0
    45    39      0   0   0
    45    44      0   0   0
    45    46      0   0   0
    45    51      0   0   0
    45    81      0   0   0
    45    88      0   0   0
    46     3      0   0   0
    46    45      0   0   0
    46    47      0   0   0
    46    89      0   0   0
    46    10      0   0   1
    46    40      0   0   1
    46    52      0   0   1
    46    82      0   0   1
    47    46      0   0   0
    47    90      0   0   0
    47     4      0   0   1
    47    11      0   0   1
    47    41      0   0   1
    47    48      0   0   1
    47    53      0   0   1
    47    83      0   0   1
    48     5      0   0   0
    48    12      0   0   0
    48    42      0   0   0
    48    43      0   0   0
    48    85      0   0   0
    48    84      1   0   0
    48    47      0   0  -1
    48    54      0   0  -1
    49    12      0   0   0
    49    13      0   0   0
    49    43      0   0   0
    49    50      0   0   0
    49    85      0   0   0
    49    55      0   1   0
    49    92      0   1   0
    49    54      0   0  -1
    50     7      0   0   0
    50    14      0   0   0
    50    44      0   0   0
    50    49      0   0   0
    50    51      0   0   0
    50    56      0   0   0
    50    86      0   0   0
    50    93      0   0   0
    51     8      0   0   0
    51    15      0   0   0
    51    45      0   0   0
    51    50      0   0   0
    51    87      0   0   0
    51    94      1   1   1
    51    57      0   1   0
    51    52      0   0   1
    52    16      0   0   0
    52    53      0   0   0
    52     9      0   0  -1
    52    46      0   0  -1
    52    51      0   0  -1
    52    88      0   0  -1
    52    58      1   1   0
    52    95      1   1   0
    53    10      0   0   0
    53    17      0   0   0
    53    52      0   0   0
    53    59      0   1   0
    53    47      0   0  -1
    53    54      0   0  -1
    53    89      0   0  -1
    53    96      1   1   0
    54    90      0   0   0
    54    11      0   0   1
    54    18      0   0   1
    54    48      0   0   1
    54    49      0   0   1
    54    53      0   0   1
    54    60      0   0   1
    54    91      0   1   1
    55    19      0   0   0
    55    61      0   0   0
    55    91      0   0   0
    55    18      0  -1   0
    55    49      0  -1   0
    55    56      0  -1   0
    55    60      0  -1   0
    55    98      0  -1   0
    56    13      0   0   0
    56    50      0   0   0
    56    62      0   0   0
    56    99      0   0   0
    56    20      0   1   0
    56    55      0   1   0
    56    57      0   1   0
    56    92      0   1   0
    57    21      0   0   0
    57    63      0   0   0
    57    14      0  -1   0
    57    51      0  -1   0
    57    56      0  -1   0
    57    93      0  -1   0
    57    58      1   0   1
    57   100      1   0   1
    58    94      0   0   0
    58   101      0   0   0
    58    22     -1   0   0
    58    59     -1   0   0
    58    64     -1   0   0
    58    15     -1  -1  -1
    58    57     -1   0  -1
    58    52     -1  -1   0
    59    58      1   0   0
    59    65      1   0   0
    59    95      1   0   0
    59   102      1   0   0
    59    16      0  -1   0
    59    23      0  -1   0
    59    53      0  -1   0
    59    60      0  -1   0
    60    17      0   0   0
    60    24      0   0   0
    60    66      0   0   0
    60    55      0   1   0
    60    59      0   1   0
    60    97      0   1   0
    60    54      0   0  -1
    60    96      1   1   0
    61    25      0   0   0
    61    55      0   0   0
    61    67      0   0   0
    61    97      0   0   0
    61    24      0  -1   0
    61    62      0  -1   0
    61    66      0  -1   0
    61   104      0  -1   0
    62    56      0   0   0
    62    98      0   0   0
    62   105      0   0   0
    62    19      0   1   0
    62    26      0   1   0
    62    61      0   1   0
    62    63      0   1   0
    62    68      0   1   0
    63    20      0   0   0
    63    27      0   0   0
    63    57      0   0   0
    63   106      0   0   0
    63    64      0   0   1
    63    69      0   0   1
    63    62      0  -1   0
    63    99      0  -1   0
    64    58      1   0   0
    64    65      1   0   0
    64   100      1   0   0
    64   107      1   0   0
    64    21      0   0  -1
    64    28      0   0  -1
    64    63      0   0  -1
    64    70      0   0  -1
    65   101      0   0   0
    65   108      0   0   0
    65    22     -1   0   0
    65    29     -1   0   0
    65    59     -1   0   0
    65    64     -1   0   0
    65    71     -1   0  -1
    65    66     -1  -1   0
    66    23      0   0   0
    66    60      0   0   0
    66    30      0   1   0
    66    61      0   1   0
    66    72      0   1   0
    66   103      0   1   0
    66    65      1   1   0
    66   102      1   1   0
    67    30      0   0   0
    67    31      0   0   0
    67    37      0   0   0
    67    61      0   0   0
    67    68      0   0   0
    67    72      0   0   0
    67    74      0   0   0
    67   103      0   0   0
    68    25      0   0   0
    68    32      0   0   0
    68    38      0   0   0
    68    67      0   0   0
    68    75      0   0   0
    68    69      0   0   1
    68    62      0  -1   0
    68   104      0  -1   0
    69    76      0   0   0
    69    26      0   0  -1
    69    33      0   0  -1
    69    39      0   0  -1
    69    63      0   0  -1
    69    68      0   0  -1
    69    70      0   0  -1
    69   105      0  -1  -1
    70    27      0   0   0
    70    34      0   0   0
    70    71      0   0   0
    70   106      0   0   0
    70    40      0   0   1
    70    64      0   0   1
    70    69      0   0   1
    70    77      0   0   1
    71    28      0   0   0
    71    70      0   0   0
    71    35      0   0   1
    71    41      0   0   1
    71    72      0   0   1
    71    78      0   0   1
    71    65      1   0   1
    71   107      1   0   1
    72    29      0   0   0
    72    36      0   0   0
    72    42      0   0   0
    72    67      0   0   0
    72    73      0   0   0
    72   108      1   0   0
    72    71      0   0  -1
    72    66      0  -1   0
    73    37      0   0   0
    73    72      0   0   0
    73    74      0   0   0
    73    78      0   0   0
    73    79      0   0   0
    73   103      0   0   0
    73   116      0   0   0
    73   109      1   0   0
    74    38      0   0   0
    74    67      0   0   0
    74    73      0   0   0
    74    75      0   0   0
    74    80      0   0   0
    74   117      1   1   1
    74   110      1   0   0
    74   104      0  -1   0
    75    39      0   0   0
    75    68      0   0   0
    75    74      0   0   0
    75    81      0   0   0
    75   118      1   1   1
    75   111      1   0   0
    75    76      0   0   1
    75   105      0  -1   0
    76    40      0   0   0
    76    69      0   0   0
    76    77      0   0   0
    76    82      0   0   0
    76   119      1   0   0
    76    75      0   0  -1
    76   106      0   0  -1
    76   112      0   0  -1
    77    41      0   0   0
    77    76      0   0   0
    77    78      0   0   0
    77    83      0   0   0
    77   113      0   0   0
    77   120      0   0   0
    77   107      1   0   0
    77    70      0   0  -1
    78    42      0   0   0
    78    73      0   0   0
    78    77      0   0   0
    78   114      0   0   0
    78    84      1   0   0
    78   108      1   0   0
    78   115      1   0   0
    78    71      0   0  -1
    79    42      0   0   0
    79    43      0   0   0
    79    73      0   0   0
    79    80      0   0   0
    79    85      0   0   0
    79    84      1   0   0
    79   115      1   0   0
    79   122      1   0   0
    80    37      0   0   0
    80    44      0   0   0
    80    74      0   0   0
    80    79      0   0   0
    80    81      0   0   0
    80    86      0   0   0
    80   116      0   0   0
    80   123      0   0   0
    81    38      0   0   0
    81    45      0   0   0
    81    75      0   0   0
    81    80      0   0   0
    81    87      0   0   0
    81   117      1   1   1
    81   124      1   1   1
    81    82      0   0   1
    82    76      0   0   0
    82    83      0   0   0
    82    39      0   0  -1
    82    46      0   0  -1
    82    81      0   0  -1
    82    88      0   0  -1
    82   118      1   1   0
    82   125      1   1   0
    83    40      0   0   0
    83    77      0   0   0
    83    82      0   0   0
    83    84      1   0   0
    83   119      1   0   0
    83    47      0   0  -1
    83    89      0   0  -1
    83   126      1   1   0
    84   121      0   0   0
    84    41     -1   0   0
    84    48     -1   0   0
    84    78     -1   0   0
    84    79     -1   0   0
    84    83     -1   0   0
    84   120     -1   0   0
    84    90     -1   0  -1
    85    48      0   0   0
    85    49      0   0   0
    85    79      0   0   0
    85    86      0   0   0
    85   128      1   1   1
    85   121      1   0   0
    85    91      0   1   0
    85    90      0   0  -1
    86    43      0   0   0
    86    50      0   0   0
    86    80      0   0   0
    86    85      0   0   0
    86    87      0   0   0
    86   129      1   1   1
    86   122      1   0   0
    86    92      0   1   0
    87    44      0   0   0
    87    51      0   0   0
    87    81      0   0   0
    87    86      0   0   0
    87    88      0   0   0
    87    93      0   0   0
    87   123      0   0   0
    87   130      0   0   0
    88    45      0   0   0
    88    87      0   0   0
    88    89      0   0   0
    88   131      0   0   0
    88    94      1   1   1
    88   124      1   1   1
    88    52      0   0   1
    88    82      0   0   1
    89    46      0   0   0
    89    88      0   0   0
    89    90      0   0   0
    89   132      0   0   0
    89    95      1   1   1
    89   125      1   1   1
    89    53      0   0   1
    89    83      0   0   1
    90    47      0   0   0
    90    54      0   0   0
    90    89      0   0   0
    90    96      1   1   1
    90   126      1   1   1
    90   127      1   1   1
    90    85      0   0   1
    90    84      1   0   1
    91    55      0   0   0
    91    92      0   0   0
    91    97      0   0   0
    91    96      1   0   0
    91   127      1   0   0
    91    85      0  -1   0
    91   134      0  -1   0
    91    54      0  -1  -1
    92    91      0   0   0
    92    49      0  -1   0
    92    56      0  -1   0
    92    86      0  -1   0
    92    93      0  -1   0
    92    98      0  -1   0
    92   135      0  -1   0
    92   128      1   0   1
    93    50      0   0   0
    93    87      0   0   0
    93    99      0   0   0
    93   136      0   0   0
    93    94      1   1   1
    93   129      1   1   1
    93    57      0   1   0
    93    92      0   1   0
    94    58      0   0   0
    94    95      0   0   0
    94   100      0   0   0
    94   137      0   0   0
    94    51     -1  -1  -1
    94    88     -1  -1  -1
    94    93     -1  -1  -1
    94   130     -1  -1  -1
    95    94      0   0   0
    95    96      0   0   0
    95   101      0   0   0
    95    59     -1   0   0
    95   138     -1   0   0
    95    89     -1  -1  -1
    95   131     -1  -1  -1
    95    52     -1  -1   0
    96    95      0   0   0
    96   102      0   0   0
    96    91     -1   0   0
    96   133     -1   0   0
    96    90     -1  -1  -1
    96   132     -1  -1  -1
    96    53     -1  -1   0
    96    60     -1  -1   0
    97    61      0   0   0
    97    91      0   0   0
    97   103      0   0   0
    97   133      0   0   0
    97   102      1   0   0
    97   140      1   0   0
    97    60      0  -1   0
    97    98      0  -1   0
    98    62      0   0   0
    98    99      0   0   0
    98   104      0   0   0
    98   134      0   0   0
    98    55      0   1   0
    98    92      0   1   0
    98    97      0   1   0
    98   141      0   1   0
    99    56      0   0   0
    99    93      0   0   0
    99    98      0   0   0
    99   105      0   0   0
    99   135      0   0   0
    99   142      0   0   0
    99   100      1   1   1
    99    63      0   1   0
   100    94      0   0   0
   100   101      0   0   0
   100    64     -1   0   0
   100    99     -1  -1  -1
   100   136     -1  -1  -1
   100   143     -1  -1  -1
   100    57     -1   0  -1
   100   106     -1   0  -1
   101    58      0   0   0
   101    65      0   0   0
   101    95      0   0   0
   101   100      0   0   0
   101   102      0   0   0
   101   107      0   0   0
   101   137      0   0   0
   101   144      0   0   0
   102    96      0   0   0
   102   101      0   0   0
   102   108      0   0   0
   102    59     -1   0   0
   102    97     -1   0   0
   102   138     -1   0   0
   102   139     -1   0   0
   102    66     -1  -1   0
   103    67      0   0   0
   103    73      0   0   0
   103    97      0   0   0
   103   139      0   0   0
   103   108      1   0   0
   103   110      1   0   0
   103    66      0  -1   0
   103   104      0  -1   0
   104    98      0   0   0
   104   105      0   0   0
   104    61      0   1   0
   104    68      0   1   0
   104    74      0   1   0
   104   103      0   1   0
   104   111      1   1   0
   104   140      1   1   0
   105    62      0   0   0
   105    99      0   0   0
   105   104      0   0   0
   105    75      0   1   0
   105   106      0   1   0
   105   112      0   1   0
   105   141      0   1   0
   105    69      0   1   1
   106    63      0   0   0
   106    70      0   0   0
   106    76      0   0   1
   106   113      0   0   1
   106   105      0  -1   0
   106   142      0  -1   0
   106   100      1   0   1
   106   107      1   0   1
   107   101      0   0   0
   107   108      0   0   0
   107    64     -1   0   0
   107    77     -1   0   0
   107   114     -1   0   0
   107   143     -1  -1  -1
   107    71     -1   0  -1
   107   106     -1   0  -1
   108    65      0   0   0
   108   102      0   0   0
   108   107      0   0   0
   108   109      0   0   0
   108   144      0   0   0
   108    72     -1   0   0
   108    78     -1   0   0
   108   103     -1   0   0
   109   108      0   0   0
   109   110      0   0   0
   109   115      0   0   0
   109   145      0   0   0
   109    73     -1   0   0
   109   114     -1   0   0
   109   139     -1   0   0
   109   152     -1   0   0
   110   109      0   0   0
   110   111      0   0   0
   110   140      0   0   0
   110   146      0   0   0
   110    74     -1   0   0
   110   103     -1   0   0
   110   116     -1   0   0
   110   153     -1   0   0
   111   110      0   0   0
   111   147      0   0   0
   111   154      0   0   1
   111    75     -1   0   0
   111   112     -1   0   0
   111   141     -1   0   0
   111   117      0   1   1
   111   104     -1  -1   0
   112   118      1   1   1
   112   155      1   1   1
   112   111      1   0   0
   112   148      1   0   0
   112    76      0   0   1
   112   113      0   0   1
   112   105      0  -1   0
   112   142      0  -1   0
   113    77      0   0   0
   113   114      0   0   0
   113   119      1   0   0
   113   149      1   0   0
   113   106      0   0  -1
   113   112      0   0  -1
   113   156      1   1   0
   113   143      0  -1  -1
   114    78      0   0   0
   114   113      0   0   0
   114   120      0   0   0
   114   107      1   0   0
   114   109      1   0   0
   114   144      1   0   0
   114   150      1   0   0
   114   151      1   0   0
   115   109      0   0   0
   115   121      0   0   0
   115   151      0   0   0
   115    78     -1   0   0
   115    79     -1   0   0
   115   116     -1   0   0
   115   120     -1   0   0
   115   158     -1   0   0
   116    73      0   0   0
   116    80      0   0   0
   116   152      0   0   0
   116   159      0   0   0
   116   117      1   1   1
   116   110      1   0   0
   116   115      1   0   0
   116   122      1   0   0
   117   118      0   0   0
   117    74     -1  -1  -1
   117    81     -1  -1  -1
   117   116     -1  -1  -1
   117   123     -1  -1  -1
   117   153     -1  -1  -1
   117   160     -1  -1  -1
   117   111      0  -1  -1
   118   117      0   0   0
   118   124      0   0   0
   118   161      0   0   0
   118   119      0  -1   0
   118   154      0  -1   0
   118    75     -1  -1  -1
   118   112     -1  -1  -1
   118    82     -1  -1   0
   119   118      0   1   0
   119   125      0   1   0
   119   155      0   1   0
   119   162      0   1   0
   119    76     -1   0   0
   119    83     -1   0   0
   119   113     -1   0   0
   119   120     -1   0   0
   120    77      0   0   0
   120   114      0   0   0
   120    84      1   0   0
   120   115      1   0   0
   120   119      1   0   0
   120   157      1   0   0
   120   126      1   1   0
   120   156      1   1   0
   121    84      0   0   0
   121   115      0   0   0
   121   122      0   0   0
   121   157      0   0   0
   121   126      0   1   0
   121   127      0   1   0
   121    85     -1   0   0
   121   164     -1   0   0
   122   121      0   0   0
   122    79     -1   0   0
   122    86     -1   0   0
   122   116     -1   0   0
   122   123     -1   0   0
   122   158     -1   0   0
   122   165     -1   0   0
   122   128      0   1   1
   123    80      0   0   0
   123    87      0   0   0
   123   159      0   0   0
   123   166      0   0   0
   123   117      1   1   1
   123   124      1   1   1
   123   129      1   1   1
   123   122      1   0   0
   124   118      0   0   0
   124   125      0   0   0
   124   167      0   0   0
   124    81     -1  -1  -1
   124    88     -1  -1  -1
   124   123     -1  -1  -1
   124   130     -1  -1  -1
   124   160     -1  -1  -1
   125   124      0   0   0
   125   126      0   0   0
   125   161      0   0   0
   125   119      0  -1   0
   125   168      0  -1   0
   125    89     -1  -1  -1
   125   131     -1  -1  -1
   125    82     -1  -1   0
   126   125      0   0   0
   126   162      0   0   0
   126   121      0  -1   0
   126   163      0  -1   0
   126    90     -1  -1  -1
   126   132     -1  -1  -1
   126    83     -1  -1   0
   126   120     -1  -1   0
   127   128      0   0   1
   127   170      0   0   1
   127   121      0  -1   0
   127   163      0  -1   0
   127    91     -1   0   0
   127   133     -1   0   0
   127    90     -1  -1  -1
   127   132     -1  -1  -1
   128   129      0   0   0
   128   171      0   0   0
   128   127      0   0  -1
   128    85     -1  -1  -1
   128   134     -1  -1  -1
   128   164     -1  -1  -1
   128   122      0  -1  -1
   128    92     -1   0  -1
   129   128      0   0   0
   129   172      0   0   0
   129    86     -1  -1  -1
   129    93     -1  -1  -1
   129   123     -1  -1  -1
   129   130     -1  -1  -1
   129   135     -1  -1  -1
   129   165     -1  -1  -1
   130    87      0   0   0
   130   131      0   0   0
   130   136      0   0   0
   130   166      0   0   0
   130    94      1   1   1
   130   124      1   1   1
   130   129      1   1   1
   130   173      1   1   1
   131    88      0   0   0
   131   130      0   0   0
   131   132      0   0   0
   131    95      1   1   1
   131   125      1   1   1
   131   137      1   1   1
   131   167      1   1   1
   131   174      1   1   1
   132    89      0   0   0
   132   131      0   0   0
   132    96      1   1   1
   132   126      1   1   1
   132   127      1   1   1
   132   169      1   1   1
   132   168      1   0   1
   132   138      0   1   1
   133    97      0   0   0
   133   138      0   0   0
   133   139      0   0   0
   133   176      0   0   0
   133    96      1   0   0
   133   127      1   0   0
   133   169      1   0   0
   133   134      0  -1   0
   134    98      0   0   0
   134   135      0   0   0
   134   128      1   1   1
   134   170      1   1   1
   134    91      0   1   0
   134   133      0   1   0
   134   140      1   1   0
   134   177      1   1   0
   135    99      0   0   0
   135   134      0   0   0
   135   136      0   0   0
   135   129      1   1   1
   135   171      1   1   1
   135    92      0   1   0
   135   141      0   1   0
   135   178      1   1   0
   136    93      0   0   0
   136   130      0   0   0
   136   135      0   0   0
   136   142      0   0   0
   136   100      1   1   1
   136   137      1   1   1
   136   172      1   1   1
   136   179      1   1   1
   137    94      0   0   0
   137   101      0   0   0
   137   173      0   0   0
   137   180      0   0   0
   137   138     -1   0   0
   137   131     -1  -1  -1
   137   136     -1  -1  -1
   137   143     -1  -1  -1
   138   133      0   0   0
   138    95      1   0   0
   138   102      1   0   0
   138   137      1   0   0
   138   144      1   0   0
   138   174      1   0   0
   138   175      1   0   0
   138   132      0  -1  -1
   139   103      0   0   0
   139   133      0   0   0
   139   102      1   0   0
   139   109      1   0   0
   139   140      1   0   0
   139   144      1   0   0
   139   146      1   0   0
   139   175      1   0   0
   140   110      0   0   0
   140   147      0   0   0
   140    97     -1   0   0
   140   139     -1   0   0
   140   141     -1   0   0
   140   176     -1   0   0
   140   104     -1  -1   0
   140   134     -1  -1   0
   141   111      1   0   0
   141   140      1   0   0
   141   148      1   0   0
   141   177      1   0   0
   141    98      0  -1   0
   141   105      0  -1   0
   141   135      0  -1   0
   141   142      0  -1   0
   142    99      0   0   0
   142   136      0   0   0
   142   143      0   0   0
   142   149      1   1   1
   142   106      0   1   0
   142   112      0   1   0
   142   141      0   1   0
   142   178      1   1   0
   143   142      0   0   0
   143   100      1   1   1
   143   107      1   1   1
   143   137      1   1   1
   143   144      1   1   1
   143   150      1   1   1
   143   179      1   1   1
   143   113      0   1   1
   144   101      0   0   0
   144   108      0   0   0
   144   145      0   0   0
   144   180      0   0   0
   144   114     -1   0   0
   144   138     -1   0   0
   144   139     -1   0   0
   144   143     -1  -1  -1
   145   109      0   0   0
   145   144      0   0   0
   145   146      0   0   0
   145   150      0   0   0
   145   151      0   0   0
   145   175      0   0   0
   145   181      0   0   0
   145   188      0   0   0
   146   110      0   0   0
   146   145      0   0   0
   146   147      0   0   0
   146   182      0   0   0
   146   189      0   0   1
   146   139     -1   0   0
   146   152     -1   0   0
   146   176     -1   0   0
   147   111      0   0   0
   147   140      0   0   0
   147   146      0   0   0
   147   148      0   0   0
   147   177      0   0   0
   147   183      0   0   0
   147   190      0   0   1
   147   153     -1   0   0
   148   147      0   0   0
   148   178      0   0   0
   148   184      0   0   0
   148   191      0   0   0
   148   149      0   0   1
   148   154      0   0   1
   148   112     -1   0   0
   148   141     -1   0   0
   149   150      0   0   0
   149   179      0   0   0
   149   185      0   0   0
   149   192      0   0   0
   149   155      0   1   0
   149   148      0   0  -1
   149   113     -1   0   0
   149   142     -1  -1  -1
   150   145      0   0   0
   150   149      0   0   0
   150   180      0   0   0
   150   186      0   0   0
   150   187      0   0   0
   150   156      0   1   0
   150   114     -1   0   0
   150   143     -1  -1  -1
   151   115      0   0   0
   151   145      0   0   0
   151   157      0   0   0
   151   187      0   0   0
   151   156      0   1   0
   151   194      0   1   0
   151   114     -1   0   0
   151   152     -1   0   0
   152   116      0   0   0
   152   153      0   0   0
   152   158      0   0   0
   152   195      0   0   0
   152   109      1   0   0
   152   146      1   0   0
   152   151      1   0   0
   152   188      1   0   0
   153   152      0   0   0
   153   159      0   0   0
   153   117      1   1   1
   153   110      1   0   0
   153   147      1   0   0
   153   196      1   0   0
   153   154      1   0   1
   153   189      1   0   1
   154   190      0   0   0
   154   197      0   0   0
   154   118      0   1   0
   154   155      0   1   0
   154   111      0   0  -1
   154   148      0   0  -1
   154   153     -1   0  -1
   154   160     -1   0  -1
   155   156      0   0   0
   155   161      0   0   0
   155   198      0   0   0
   155   119      0  -1   0
   155   149      0  -1   0
   155   154      0  -1   0
   155   112     -1  -1  -1
   155   191      0  -1  -1
   156   155      0   0   0
   156   162      0   0   0
   156   150      0  -1   0
   156   151      0  -1   0
   156   192      0  -1   0
   156   193      0  -1   0
   156   113     -1  -1   0
   156   120     -1  -1   0
   157   121      0   0   0
   157   151      0   0   0
   157   163      0   0   0
   157   193      0   0   0
   157   162      0   1   0
   157   200      0   1   0
   157   120     -1   0   0
   157   158     -1   0   0
   158   152      0   0   0
   158   159      0   0   0
   158   164      0   0   0
   158   115      1   0   0
   158   122      1   0   0
   158   157      1   0   0
   158   201      1   0   0
   158   194      1   1   0
   159   116      0   0   0
   159   123      0   0   0
   159   153      0   0   0
   159   158      0   0   0
   159   160      0   0   0
   159   165      0   0   0
   159   195      0   0   0
   159   202      0   0   0
   160   159      0   0   0
   160   166      0   0   0
   160   117      1   1   1
   160   124      1   1   1
   160   161      1   1   1
   160   196      1   0   0
   160   154      1   0   1
   160   203      1   0   1
   161   118      0   0   0
   161   125      0   0   0
   161   155      0   0   0
   161   162      0   0   0
   161   167      0   0   0
   161   204      0   0   0
   161   197      0  -1   0
   161   160     -1  -1  -1
   162   126      0   0   0
   162   156      0   0   0
   162   161      0   0   0
   162   198      0   0   0
   162   119      0  -1   0
   162   157      0  -1   0
   162   168      0  -1   0
   162   199      0  -1   0
   163   157      0   0   0
   163   168      0   0   0
   163   199      0   0   0
   163   126      0   1   0
   163   127      0   1   0
   163   169      0   1   0
   163   164     -1   0   0
   163   206      0   1   1
   164   158      0   0   0
   164   165      0   0   0
   164   128      1   1   1
   164   170      1   1   1
   164   121      1   0   0
   164   163      1   0   0
   164   200      1   1   0
   164   207      1   1   0
   165   159      0   0   0
   165   164      0   0   0
   165   166      0   0   0
   165   129      1   1   1
   165   171      1   1   1
   165   122      1   0   0
   165   201      1   0   0
   165   208      1   1   0
   166   123      0   0   0
   166   130      0   0   0
   166   160      0   0   0
   166   165      0   0   0
   166   202      0   0   0
   166   167      1   1   1
   166   172      1   1   1
   166   209      1   1   1
   167   124      0   0   0
   167   161      0   0   0
   167   173      0   0   0
   167   210      0   0   0
   167   168      0  -1   0
   167   203      0  -1   0
   167   131     -1  -1  -1
   167   166     -1  -1  -1
   168   163      0   0   0
   168   125      0   1   0
   168   162      0   1   0
   168   167      0   1   0
   168   174      0   1   0
   168   204      0   1   0
   168   205      0   1   0
   168   132     -1   0  -1
   169   174      0   0   0
   169   175      0   0   0
   169   205      0   0   0
   169   212      0   0   0
   169   170      0   0   1
   169   163      0  -1   0
   169   133     -1   0   0
   169   132     -1  -1  -1
   170   171      0   0   0
   170   206      0   0   0
   170   213      0   0   0
   170   127      0   0  -1
   170   169      0   0  -1
   170   134     -1  -1  -1
   170   164     -1  -1  -1
   170   176     -1   0  -1
   171   128      0   0   0
   171   170      0   0   0
   171   172      0   0   0
   171   214      0   0   0
   171   177      0   0  -1
   171   207      0   0  -1
   171   135     -1  -1  -1
   171   165     -1  -1  -1
   172   129      0   0   0
   172   171      0   0   0
   172   173      0   0   0
   172   215      0   0   0
   172   178      0   0  -1
   172   208      0   0  -1
   172   136     -1  -1  -1
   172   166     -1  -1  -1
   173   137      0   0   0
   173   167      0   0   0
   173   172      0   0   0
   173   174      0   0   0
   173   179      0   0   0
   173   209      0   0   0
   173   216      0   0   0
   173   130     -1  -1  -1
   174   169      0   0   0
   174   173      0   0   0
   174   180      0   0   0
   174   210      0   0   0
   174   211      0   0   0
   174   168      0  -1   0
   174   138     -1   0   0
   174   131     -1  -1  -1
   175   145      0   0   0
   175   169      0   0   0
   175   180      0   0   0
   175   182      0   0   0
   175   211      0   0   0
   175   138     -1   0   0
   175   139     -1   0   0
   175   176     -1   0   0
   176   133      0   0   0
   176   140      1   0   0
   176   146      1   0   0
   176   175      1   0   0
   176   177      1   0   0
   176   183      1   0   0
   176   212      1   0   0
   176   170      1   0   1
   177   147      0   0   0
   177   178      0   0   0
   177   184      0   0   0
   177   171      0   0   1
   177   213      0   0   1
   177   141     -1   0   0
   177   176     -1   0   0
   177   134     -1  -1   0
   178   148      0   0   0
   178   177      0   0   0
   178   172      0   0   1
   178   179      0   0   1
   178   185      0   0   1
   178   214      0   0   1
   178   135     -1  -1   0
   178   142     -1  -1   0
   179   149      0   0   0
   179   173      0   0   0
   179   180      0   0   0
   179   186      0   0   0
   179   215      0   0   0
   179   178      0   0  -1
   179   136     -1  -1  -1
   179   143     -1  -1  -1
   180   137      0   0   0
   180   144      0   0   0
   180   150      0   0   0
   180   174      0   0   0
   180   175      0   0   0
   180   179      0   0   0
   180   181      0   0   0
   180   216      0   0   0
   181     1      0   0   0
   181     8      0   0   0
   181   145      0   0   0
   181   180      0   0   0
   181   182      0   0   0
   181   186      0   0   0
   181   187      0   0   0
   181   211      0   0   0
   182     2      0   0   0
   182     9      0   0   0
   182   146      0   0   0
   182   175      0   0   0
   182   181      0   0   0
   182   183      0   0   0
   182   188      0   0   0
   182   212      0   0   0
   183     3      0   0   0
   183   147      0   0   0
   183   182      0   0   0
   183   184      0   0   0
   183    10      0   0   1
   183   189      0   0   1
   183   213      0   0   1
   183   176     -1   0   0
   184   148      0   0   0
   184   177      0   0   0
   184   183      0   0   0
   184     4      0   0   1
   184    11      0   0   1
   184   185      0   0   1
   184   190      0   0   1
   184   214      0   0   1
   185     5      0   0   0
   185    12      0   0   0
   185   149      0   0   0
   185   186      0   0   0
   185   215      0   0   0
   185   178      0   0  -1
   185   184      0   0  -1
   185   191      0   0  -1
   186     6      0   0   0
   186     7      0   0   0
   186   150      0   0   0
   186   179      0   0   0
   186   181      0   0   0
   186   185      0   0   0
   186   192      0   0   0
   186   216      0   0   0
   187     7      0   0   0
   187    14      0   0   0
   187   150      0   0   0
   187   151      0   0   0
   187   181      0   0   0
   187   188      0   0   0
   187   192      0   0   0
   187   193      0   0   0
   188     8      0   0   0
   188    15      0   0   0
   188   145      0   0   0
   188   182      0   0   0
   188   187      0   0   0
   188   194      0   1   0
   188   189      0   0   1
   188   152     -1   0   0
   189    16      0   0   0
   189   190      0   0   0
   189     9      0   0  -1
   189   146      0   0  -1
   189   183      0   0  -1
   189   188      0   0  -1
   189   153     -1   0  -1
   189   195     -1   0  -1
   190    10      0   0   0
   190    17      0   0   0
   190   154      0   0   0
   190   189      0   0   0
   190   147      0   0  -1
   190   184      0   0  -1
   190   191      0   0  -1
   190   196      0   0  -1
   191   148      0   0   0
   191    11      0   0   1
   191    18      0   0   1
   191   185      0   0   1
   191   190      0   0   1
   191   192      0   0   1
   191   197      0   0   1
   191   155      0   1   1
   192    12      0   0   0
   192    13      0   0   0
   192   149      0   0   0
   192   186      0   0   0
   192   187      0   0   0
   192   156      0   1   0
   192   198      0   1   0
   192   191      0   0  -1
   193    13      0   0   0
   193   157      0   0   0
   193   187      0   0   0
   193   199      0   0   0
   193    20      0   1   0
   193   156      0   1   0
   193   194      0   1   0
   193   198      0   1   0
   194    21      0   0   0
   194   200      0   0   0
   194    14      0  -1   0
   194   151      0  -1   0
   194   188      0  -1   0
   194   193      0  -1   0
   194   158     -1  -1   0
   194   195     -1  -1   0
   195   152      0   0   0
   195   159      0   0   0
   195    22      1   1   1
   195    15      1   0   0
   195   196      1   0   0
   195   201      1   0   0
   195   194      1   1   0
   195   189      1   0   1
   196    16      0   0   1
   196    23      0   0   1
   196   190      0   0   1
   196   197      0   0   1
   196   153     -1   0   0
   196   160     -1   0   0
   196   195     -1   0   0
   196   202     -1   0   0
   197    17      0   0   0
   197    24      0   0   0
   197   154      0   0   0
   197   203      0   0   0
   197   161      0   1   0
   197   198      0   1   0
   197   191      0   0  -1
   197   196      0   0  -1
   198    19      0   0   0
   198   155      0   0   0
   198   162      0   0   0
   198   204      0   0   0
   198    18      0  -1   0
   198   192      0  -1   0
   198   193      0  -1   0
   198   197      0  -1   0
   199   163      0   0   0
   199   193      0   0   0
   199    19      0   1   0
   199    26      0   1   0
   199   162      0   1   0
   199   200      0   1   0
   199   204      0   1   0
   199   205      0   1   0
   200    20      0   0   0
   200    27      0   0   0
   200   194      0   0   0
   200   206      0   0   1
   200   157      0  -1   0
   200   199      0  -1   0
   200   201      0  -1   0
   200   164     -1  -1   0
   201    21      0   1   0
   201    28      0   1   0
   201   200      0   1   0
   201   207      0   1   0
   201   158     -1   0   0
   201   165     -1   0   0
   201   195     -1   0   0
   201   202     -1   0   0
   202   159      0   0   0
   202   166      0   0   0
   202    22      1   1   1
   202    29      1   1   1
   202   196      1   0   0
   202   201      1   0   0
   202   208      1   1   0
   202   203      1   0   1
   203    23      0   0   0
   203   197      0   0   0
   203    30      0   1   0
   203   167      0   1   0
   203   204      0   1   0
   203   209      0   1   0
   203   160     -1   0  -1
   203   202     -1   0  -1
   204    25      0   0   0
   204   161      0   0   0
   204   198      0   0   0
   204   210      0   0   0
   204    24      0  -1   0
   204   168      0  -1   0
   204   199      0  -1   0
   204   203      0  -1   0
   205    25      0   0   0
   205    32      0   0   0
   205   169      0   0   0
   205   210      0   0   0
   205   211      0   0   0
   205   206      0   0   1
   205   168      0  -1   0
   205   199      0  -1   0
   206   170      0   0   0
   206    26      0   0  -1
   206    33      0   0  -1
   206   200      0   0  -1
   206   205      0   0  -1
   206   207      0   0  -1
   206   212      0   0  -1
   206   163      0  -1  -1
   207    27      0   0   0
   207    34      0   0   0
   207   208      0   0   0
   207   171      0   0   1
   207   206      0   0   1
   207   213      0   0   1
   207   201      0  -1   0
   207   164     -1  -1   0
   208    28      0   0   0
   208   207      0   0   0
   208    35      0   0   1
   208   172      0   0   1
   208   209      0   0   1
   208   214      0   0   1
   208   165     -1  -1   0
   208   202     -1  -1   0
   209    29      0   0   0
   209    36      0   0   0
   209   173      0   0   0
   209   210      0   0   0
   209   215      0   0   0
   209   208      0   0  -1
   209   203      0  -1   0
   209   166     -1  -1  -1
   210    30      0   0   0
   210    31      0   0   0
   210   167      0   0   0
   210   174      0   0   0
   210   204      0   0   0
   210   205      0   0   0
   210   209      0   0   0
   210   216      0   0   0
   211     2      0   0   0
   211    31      0   0   0
   211   174      0   0   0
   211   175      0   0   0
   211   181      0   0   0
   211   205      0   0   0
   211   212      0   0   0
   211   216      0   0   0
   212     3      0   0   0
   212    32      0   0   0
   212   169      0   0   0
   212   182      0   0   0
   212   211      0   0   0
   212   206      0   0   1
   212   213      0   0   1
   212   176     -1   0   0
   213     4      0   0   0
   213   170      0   0   0
   213   214      0   0   0
   213    33      0   0  -1
   213   177      0   0  -1
   213   183      0   0  -1
   213   207      0   0  -1
   213   212      0   0  -1
   214     5      0   0   0
   214   171      0   0   0
   214   213      0   0   0
   214   215      0   0   0
   214    34      0   0  -1
   214   178      0   0  -1
   214   184      0   0  -1
   214   208      0   0  -1
   215     6      0   0   0
   215    35      0   0   0
   215   172      0   0   0
   215   179      0   0   0
   215   185      0   0   0
   215   209      0   0   0
   215   214      0   0   0
   215   216      0   0   0
   216     1      0   0   0
   216    36      0   0   0
   216   173      0   0   0
   216   180      0   0   0
   216   186      0   0   0
   216   210      0   0   0
   216   211      0   0   0
   216   215      0   0   0
end nnkpts

begin exclude_bands
   0
end exclude_bands
