File written on 21Sep2021 at 15:55:34 

calc_only_A  :  F

begin real_lattice
  -2.2500000   0.0000000   2.2500000
   0.0000000   2.2500000   2.2500000
  -2.2500000   2.2500000   0.0000000
end real_lattice

begin recip_lattice
  -1.3962634  -1.3962634   1.3962634
   1.3962634   1.3962634   1.3962634
  -1.3962634   1.3962634  -1.3962634
end recip_lattice

begin kpoints
   512
    0.00000000    0.00000000    0.00000000
    0.00000000    0.00000000    0.12500000
    0.00000000    0.00000000    0.25000000
    0.00000000    0.00000000    0.37500000
    0.00000000    0.00000000   -0.50000000
    0.00000000    0.00000000   -0.37500000
    0.00000000    0.00000000   -0.25000000
    0.00000000    0.00000000   -0.12500000
    0.00000000    0.12500000    0.00000000
    0.00000000    0.12500000    0.12500000
    0.00000000    0.12500000    0.25000000
    0.00000000    0.12500000    0.37500000
    0.00000000    0.12500000   -0.50000000
    0.00000000    0.12500000   -0.37500000
    0.00000000    0.12500000   -0.25000000
    0.00000000    0.12500000   -0.12500000
    0.00000000    0.25000000    0.00000000
    0.00000000    0.25000000    0.12500000
    0.00000000    0.25000000    0.25000000
    0.00000000    0.25000000    0.37500000
    0.00000000    0.25000000   -0.50000000
    0.00000000    0.25000000   -0.37500000
    0.00000000    0.25000000   -0.25000000
    0.00000000    0.25000000   -0.12500000
    0.00000000    0.37500000    0.00000000
    0.00000000    0.37500000    0.12500000
    0.00000000    0.37500000    0.25000000
    0.00000000    0.37500000    0.37500000
    0.00000000    0.37500000   -0.50000000
    0.00000000    0.37500000   -0.37500000
    0.00000000    0.37500000   -0.25000000
    0.00000000    0.37500000   -0.12500000
    0.00000000   -0.50000000    0.00000000
    0.00000000   -0.50000000    0.12500000
    0.00000000   -0.50000000    0.25000000
    0.00000000   -0.50000000    0.37500000
    0.00000000   -0.50000000   -0.50000000
    0.00000000    0.50000000   -0.37500000
    0.00000000    0.50000000   -0.25000000
    0.00000000    0.50000000   -0.12500000
    0.00000000   -0.37500000    0.00000000
    0.00000000   -0.37500000    0.12500000
    0.00000000   -0.37500000    0.25000000
    0.00000000   -0.37500000    0.37500000
    0.00000000   -0.37500000    0.50000000
    0.00000000   -0.37500000   -0.37500000
    0.00000000   -0.37500000   -0.25000000
    0.00000000   -0.37500000   -0.12500000
    0.00000000   -0.25000000    0.00000000
    0.00000000   -0.25000000    0.12500000
    0.00000000   -0.25000000    0.25000000
    0.00000000   -0.25000000    0.37500000
    0.00000000   -0.25000000    0.50000000
    0.00000000   -0.25000000   -0.37500000
    0.00000000   -0.25000000   -0.25000000
    0.00000000   -0.25000000   -0.12500000
    0.00000000   -0.12500000    0.00000000
    0.00000000   -0.12500000    0.12500000
    0.00000000   -0.12500000    0.25000000
    0.00000000   -0.12500000    0.37500000
    0.00000000   -0.12500000    0.50000000
    0.00000000   -0.12500000   -0.37500000
    0.00000000   -0.12500000   -0.25000000
    0.00000000   -0.12500000   -0.12500000
    0.12500000    0.00000000    0.00000000
    0.12500000    0.00000000    0.12500000
    0.12500000    0.00000000    0.25000000
    0.12500000    0.00000000    0.37500000
    0.12500000    0.00000000   -0.50000000
    0.12500000    0.00000000   -0.37500000
    0.12500000    0.00000000   -0.25000000
    0.12500000    0.00000000   -0.12500000
    0.12500000    0.12500000    0.00000000
    0.12500000    0.12500000    0.12500000
    0.12500000    0.12500000    0.25000000
    0.12500000    0.12500000    0.37500000
    0.12500000    0.12500000    0.50000000
    0.12500000    0.12500000    0.62500000
    0.12500000    0.12500000   -0.25000000
    0.12500000    0.12500000   -0.12500000
    0.12500000    0.25000000    0.00000000
    0.12500000    0.25000000    0.12500000
    0.12500000    0.25000000    0.25000000
    0.12500000    0.25000000    0.37500000
    0.12500000    0.25000000   -0.50000000
    0.12500000    0.25000000   -0.37500000
    0.12500000    0.25000000    0.75000000
    0.12500000    0.25000000   -0.12500000
    0.12500000    0.37500000    0.00000000
    0.12500000    0.37500000    0.12500000
    0.12500000    0.37500000    0.25000000
    0.12500000    0.37500000    0.37500000
    0.12500000    0.37500000   -0.50000000
    0.12500000    0.37500000   -0.37500000
    0.12500000    0.37500000   -0.25000000
    0.12500000   -0.62500000   -0.12500000
    0.12500000   -0.50000000    0.00000000
    0.12500000    0.50000000    0.12500000
    0.12500000   -0.50000000    0.25000000
    0.12500000   -0.50000000    0.37500000
   -0.87500000   -0.50000000   -0.50000000
    0.12500000   -0.50000000   -0.37500000
    0.12500000    0.50000000   -0.25000000
    0.12500000    0.50000000   -0.12500000
    0.12500000   -0.37500000    0.00000000
    0.12500000    0.62500000    0.12500000
    0.12500000   -0.37500000    0.25000000
    0.12500000   -0.37500000    0.37500000
    0.12500000   -0.37500000   -0.50000000
   -0.87500000   -0.37500000   -0.37500000
    0.12500000    0.62500000   -0.25000000
    0.12500000    0.62500000   -0.12500000
    0.12500000   -0.25000000    0.00000000
    0.12500000   -0.25000000    0.12500000
    0.12500000    0.75000000    0.25000000
    0.12500000   -0.25000000    0.37500000
    0.12500000   -0.25000000    0.50000000
    0.12500000   -0.25000000    0.62500000
    0.12500000   -0.25000000   -0.25000000
    0.12500000   -0.25000000   -0.12500000
    0.12500000   -0.12500000    0.00000000
    0.12500000   -0.12500000    0.12500000
    0.12500000   -0.12500000    0.25000000
    0.12500000   -0.12500000   -0.62500000
    0.12500000   -0.12500000    0.50000000
    0.12500000   -0.12500000    0.62500000
    0.12500000   -0.12500000   -0.25000000
    0.12500000   -0.12500000   -0.12500000
    0.25000000    0.00000000    0.00000000
    0.25000000    0.00000000    0.12500000
    0.25000000    0.00000000    0.25000000
    0.25000000    0.00000000    0.37500000
    0.25000000    0.00000000   -0.50000000
    0.25000000    0.00000000   -0.37500000
    0.25000000    0.00000000   -0.25000000
    0.25000000    0.00000000   -0.12500000
    0.25000000    0.12500000    0.00000000
    0.25000000    0.12500000    0.12500000
    0.25000000    0.12500000    0.25000000
    0.25000000    0.12500000    0.37500000
    0.25000000    0.12500000   -0.50000000
    0.25000000    0.12500000   -0.37500000
    0.25000000    0.12500000    0.75000000
    0.25000000    0.12500000   -0.12500000
    0.25000000    0.25000000    0.00000000
    0.25000000    0.25000000    0.12500000
    0.25000000    0.25000000    0.25000000
    0.25000000    0.25000000    0.37500000
    0.25000000    0.25000000    0.50000000
    0.25000000    0.25000000    0.62500000
    0.25000000    0.25000000    0.75000000
    0.25000000    0.25000000   -0.12500000
    0.25000000    0.37500000    0.00000000
    0.25000000    0.37500000    0.12500000
    0.25000000    0.37500000    0.25000000
    0.25000000    0.37500000    0.37500000
   -0.75000000   -0.62500000   -0.50000000
    0.25000000    0.37500000    0.62500000
    0.25000000    0.37500000    0.75000000
    0.25000000    0.37500000    0.87500000
    0.25000000   -0.50000000    0.00000000
    0.25000000   -0.50000000    0.12500000
    0.25000000    0.50000000    0.25000000
   -0.75000000   -0.50000000   -0.62500000
   -0.75000000   -0.50000000   -0.50000000
   -0.75000000   -0.50000000   -0.37500000
    0.25000000   -0.50000000   -0.25000000
    0.25000000   -0.50000000   -0.12500000
    0.25000000   -0.37500000    0.00000000
    0.25000000    0.62500000    0.12500000
    0.25000000    0.62500000    0.25000000
    0.25000000    0.62500000    0.37500000
   -0.75000000   -0.37500000   -0.50000000
   -0.75000000   -0.37500000   -0.37500000
   -0.75000000   -0.37500000   -0.25000000
    0.25000000   -0.37500000   -0.12500000
    0.25000000   -0.25000000    0.00000000
    0.25000000    0.75000000    0.12500000
    0.25000000    0.75000000    0.25000000
    0.25000000    0.75000000    0.37500000
    0.25000000   -0.25000000   -0.50000000
   -0.75000000   -0.25000000   -0.37500000
   -0.75000000   -0.25000000   -0.25000000
   -0.75000000   -0.25000000   -0.12500000
    0.25000000   -0.12500000    0.00000000
    0.25000000   -0.12500000    0.12500000
    0.25000000   -0.12500000    0.25000000
    0.25000000   -0.12500000   -0.62500000
    0.25000000   -0.12500000   -0.50000000
    0.25000000   -0.12500000   -0.37500000
   -0.75000000   -0.12500000   -0.25000000
    0.25000000   -0.12500000   -0.12500000
    0.37500000    0.00000000    0.00000000
    0.37500000    0.00000000    0.12500000
    0.37500000    0.00000000    0.25000000
    0.37500000    0.00000000    0.37500000
    0.37500000    0.00000000   -0.50000000
    0.37500000    0.00000000   -0.37500000
    0.37500000    0.00000000   -0.25000000
    0.37500000    0.00000000   -0.12500000
    0.37500000    0.12500000    0.00000000
    0.37500000    0.12500000    0.12500000
    0.37500000    0.12500000    0.25000000
    0.37500000    0.12500000    0.37500000
    0.37500000    0.12500000   -0.50000000
    0.37500000    0.12500000   -0.37500000
    0.37500000    0.12500000   -0.25000000
   -0.62500000    0.12500000   -0.12500000
    0.37500000    0.25000000    0.00000000
    0.37500000    0.25000000    0.12500000
    0.37500000    0.25000000    0.25000000
    0.37500000    0.25000000    0.37500000
   -0.62500000   -0.75000000   -0.50000000
    0.37500000    0.25000000    0.62500000
    0.37500000    0.25000000    0.75000000
   -0.62500000    0.25000000   -0.12500000
    0.37500000    0.37500000    0.00000000
    0.37500000    0.37500000    0.12500000
    0.37500000    0.37500000    0.25000000
    0.37500000    0.37500000    0.37500000
    0.37500000    0.37500000    0.50000000
    0.37500000    0.37500000    0.62500000
    0.37500000    0.37500000    0.75000000
    0.37500000    0.37500000    0.87500000
    0.37500000   -0.50000000    0.00000000
    0.37500000   -0.50000000    0.12500000
   -0.62500000   -0.50000000   -0.75000000
    0.37500000    0.50000000    0.37500000
   -0.62500000   -0.50000000   -0.50000000
   -0.62500000   -0.50000000   -0.37500000
    0.37500000    0.50000000    0.75000000
   -0.62500000   -0.50000000   -0.12500000
    0.37500000   -0.37500000    0.00000000
    0.37500000   -0.37500000    0.12500000
    0.37500000    0.62500000    0.25000000
    0.37500000    0.62500000    0.37500000
   -0.62500000   -0.37500000   -0.50000000
   -0.62500000   -0.37500000   -0.37500000
   -0.62500000   -0.37500000   -0.25000000
    0.37500000   -0.37500000   -0.12500000
    0.37500000   -0.25000000    0.00000000
    0.37500000   -0.25000000    0.12500000
    0.37500000    0.75000000    0.25000000
    0.37500000    0.75000000    0.37500000
    0.37500000    0.75000000    0.50000000
   -0.62500000   -0.25000000   -0.37500000
   -0.62500000   -0.25000000   -0.25000000
   -0.62500000   -0.25000000   -0.12500000
    0.37500000   -0.12500000    0.00000000
   -0.62500000   -0.12500000    0.12500000
    0.37500000    0.87500000    0.25000000
    0.37500000    0.87500000    0.37500000
    0.37500000   -0.12500000    0.50000000
    0.37500000   -0.12500000   -0.37500000
   -0.62500000   -0.12500000   -0.25000000
   -0.62500000   -0.12500000   -0.12500000
   -0.50000000    0.00000000    0.00000000
   -0.50000000    0.00000000    0.12500000
   -0.50000000    0.00000000    0.25000000
   -0.50000000    0.00000000    0.37500000
    0.50000000    0.00000000    0.50000000
    0.50000000    0.00000000   -0.37500000
    0.50000000    0.00000000   -0.25000000
    0.50000000    0.00000000   -0.12500000
   -0.50000000    0.12500000    0.00000000
    0.50000000    0.12500000    0.12500000
   -0.50000000    0.12500000    0.25000000
   -0.50000000   -0.87500000   -0.62500000
   -0.50000000   -0.87500000   -0.50000000
   -0.50000000    0.12500000   -0.37500000
    0.50000000    0.12500000   -0.25000000
    0.50000000    0.12500000   -0.12500000
   -0.50000000    0.25000000    0.00000000
   -0.50000000    0.25000000    0.12500000
    0.50000000    0.25000000    0.25000000
   -0.50000000   -0.75000000   -0.62500000
   -0.50000000   -0.75000000   -0.50000000
   -0.50000000   -0.75000000   -0.37500000
   -0.50000000    0.25000000   -0.25000000
   -0.50000000    0.25000000   -0.12500000
   -0.50000000    0.37500000    0.00000000
   -0.50000000    0.37500000    0.12500000
   -0.50000000   -0.62500000   -0.75000000
    0.50000000    0.37500000    0.37500000
   -0.50000000   -0.62500000   -0.50000000
   -0.50000000   -0.62500000   -0.37500000
    0.50000000    0.37500000    0.75000000
   -0.50000000   -0.62500000   -0.12500000
   -0.50000000   -0.50000000    0.00000000
   -0.50000000   -0.50000000   -0.87500000
   -0.50000000   -0.50000000   -0.75000000
   -0.50000000   -0.50000000   -0.62500000
    0.50000000    0.50000000    0.50000000
    0.50000000    0.50000000    0.62500000
    0.50000000    0.50000000    0.75000000
    0.50000000    0.50000000    0.87500000
    0.50000000   -0.37500000    0.00000000
    0.50000000    0.62500000    0.12500000
   -0.50000000   -0.37500000   -0.75000000
    0.50000000    0.62500000    0.37500000
    0.50000000    0.62500000    0.50000000
   -0.50000000   -0.37500000   -0.37500000
    0.50000000    0.62500000    0.75000000
    0.50000000   -0.37500000   -0.12500000
    0.50000000   -0.25000000    0.00000000
    0.50000000   -0.25000000    0.12500000
    0.50000000   -0.25000000    0.25000000
    0.50000000    0.75000000    0.37500000
    0.50000000    0.75000000    0.50000000
    0.50000000    0.75000000    0.62500000
   -0.50000000   -0.25000000   -0.25000000
    0.50000000   -0.25000000   -0.12500000
    0.50000000   -0.12500000    0.00000000
   -0.50000000   -0.12500000    0.12500000
   -0.50000000   -0.12500000    0.25000000
    0.50000000   -0.12500000    0.37500000
    0.50000000    0.87500000    0.50000000
    0.50000000    0.87500000    0.62500000
    0.50000000   -0.12500000   -0.25000000
   -0.50000000   -0.12500000   -0.12500000
   -0.37500000    0.00000000    0.00000000
   -0.37500000    0.00000000    0.12500000
   -0.37500000    0.00000000    0.25000000
   -0.37500000    0.00000000    0.37500000
   -0.37500000    0.00000000    0.50000000
   -0.37500000    0.00000000   -0.37500000
   -0.37500000    0.00000000   -0.25000000
   -0.37500000    0.00000000   -0.12500000
   -0.37500000    0.12500000    0.00000000
    0.62500000    0.12500000    0.12500000
    0.62500000    0.12500000    0.25000000
   -0.37500000    0.12500000    0.37500000
   -0.37500000    0.12500000   -0.50000000
   -0.37500000   -0.87500000   -0.37500000
   -0.37500000   -0.87500000   -0.25000000
    0.62500000    0.12500000   -0.12500000
   -0.37500000    0.25000000    0.00000000
    0.62500000    0.25000000    0.12500000
    0.62500000    0.25000000    0.25000000
    0.62500000    0.25000000    0.37500000
   -0.37500000   -0.75000000   -0.50000000
   -0.37500000   -0.75000000   -0.37500000
   -0.37500000   -0.75000000   -0.25000000
   -0.37500000    0.25000000   -0.12500000
   -0.37500000    0.37500000    0.00000000
   -0.37500000    0.37500000    0.12500000
    0.62500000    0.37500000    0.25000000
    0.62500000    0.37500000    0.37500000
    0.62500000    0.37500000    0.50000000
   -0.37500000   -0.62500000   -0.37500000
   -0.37500000   -0.62500000   -0.25000000
   -0.37500000    0.37500000   -0.12500000
   -0.37500000    0.50000000    0.00000000
    0.62500000    0.50000000    0.12500000
   -0.37500000   -0.50000000   -0.75000000
    0.62500000    0.50000000    0.37500000
    0.62500000    0.50000000    0.50000000
   -0.37500000   -0.50000000   -0.37500000
    0.62500000    0.50000000    0.75000000
   -0.37500000    0.50000000   -0.12500000
   -0.37500000   -0.37500000    0.00000000
   -0.37500000   -0.37500000   -0.87500000
   -0.37500000   -0.37500000   -0.75000000
   -0.37500000   -0.37500000   -0.62500000
   -0.37500000   -0.37500000   -0.50000000
   -0.37500000   -0.37500000   -0.37500000
   -0.37500000   -0.37500000   -0.25000000
   -0.37500000   -0.37500000   -0.12500000
   -0.37500000   -0.25000000    0.00000000
    0.62500000   -0.25000000    0.12500000
   -0.37500000   -0.25000000   -0.75000000
   -0.37500000   -0.25000000   -0.62500000
    0.62500000    0.75000000    0.50000000
   -0.37500000   -0.25000000   -0.37500000
   -0.37500000   -0.25000000   -0.25000000
   -0.37500000   -0.25000000   -0.12500000
   -0.37500000   -0.12500000    0.00000000
    0.62500000   -0.12500000    0.12500000
   -0.37500000   -0.12500000    0.25000000
   -0.37500000   -0.12500000    0.37500000
   -0.37500000   -0.12500000    0.50000000
   -0.37500000   -0.12500000   -0.37500000
   -0.37500000   -0.12500000   -0.25000000
   -0.37500000   -0.12500000   -0.12500000
   -0.25000000    0.00000000    0.00000000
   -0.25000000    0.00000000    0.12500000
   -0.25000000    0.00000000    0.25000000
   -0.25000000    0.00000000    0.37500000
   -0.25000000    0.00000000    0.50000000
   -0.25000000    0.00000000   -0.37500000
   -0.25000000    0.00000000   -0.25000000
   -0.25000000    0.00000000   -0.12500000
   -0.25000000    0.12500000    0.00000000
   -0.25000000    0.12500000    0.12500000
    0.75000000    0.12500000    0.25000000
   -0.25000000    0.12500000    0.37500000
   -0.25000000    0.12500000    0.50000000
   -0.25000000    0.12500000    0.62500000
   -0.25000000    0.12500000   -0.25000000
   -0.25000000    0.12500000   -0.12500000
   -0.25000000    0.25000000    0.00000000
    0.75000000    0.25000000    0.12500000
    0.75000000    0.25000000    0.25000000
    0.75000000    0.25000000    0.37500000
   -0.25000000    0.25000000    0.50000000
   -0.25000000   -0.75000000   -0.37500000
   -0.25000000   -0.75000000   -0.25000000
   -0.25000000   -0.75000000   -0.12500000
   -0.25000000    0.37500000    0.00000000
   -0.25000000    0.37500000    0.12500000
    0.75000000    0.37500000    0.25000000
    0.75000000    0.37500000    0.37500000
    0.75000000    0.37500000    0.50000000
   -0.25000000   -0.62500000   -0.37500000
   -0.25000000   -0.62500000   -0.25000000
   -0.25000000   -0.62500000   -0.12500000
   -0.25000000    0.50000000    0.00000000
   -0.25000000    0.50000000    0.12500000
   -0.25000000    0.50000000    0.25000000
    0.75000000    0.50000000    0.37500000
    0.75000000    0.50000000    0.50000000
    0.75000000    0.50000000    0.62500000
   -0.25000000   -0.50000000   -0.25000000
   -0.25000000    0.50000000   -0.12500000
   -0.25000000   -0.37500000    0.00000000
   -0.25000000   -0.37500000   -0.87500000
   -0.25000000   -0.37500000   -0.75000000
   -0.25000000   -0.37500000   -0.62500000
    0.75000000    0.62500000    0.50000000
   -0.25000000   -0.37500000   -0.37500000
   -0.25000000   -0.37500000   -0.25000000
   -0.25000000   -0.37500000   -0.12500000
   -0.25000000   -0.25000000    0.00000000
   -0.25000000   -0.25000000    0.12500000
   -0.25000000   -0.25000000   -0.75000000
   -0.25000000   -0.25000000   -0.62500000
   -0.25000000   -0.25000000   -0.50000000
   -0.25000000   -0.25000000   -0.37500000
   -0.25000000   -0.25000000   -0.25000000
   -0.25000000   -0.25000000   -0.12500000
   -0.25000000   -0.12500000    0.00000000
   -0.25000000   -0.12500000    0.12500000
   -0.25000000   -0.12500000   -0.75000000
   -0.25000000   -0.12500000    0.37500000
   -0.25000000   -0.12500000    0.50000000
   -0.25000000   -0.12500000   -0.37500000
   -0.25000000   -0.12500000   -0.25000000
   -0.25000000   -0.12500000   -0.12500000
   -0.12500000    0.00000000    0.00000000
   -0.12500000    0.00000000    0.12500000
   -0.12500000    0.00000000    0.25000000
   -0.12500000    0.00000000    0.37500000
   -0.12500000    0.00000000    0.50000000
   -0.12500000    0.00000000   -0.37500000
   -0.12500000    0.00000000   -0.25000000
   -0.12500000    0.00000000   -0.12500000
   -0.12500000    0.12500000    0.00000000
   -0.12500000    0.12500000    0.12500000
   -0.12500000    0.12500000    0.25000000
   -0.12500000    0.12500000   -0.62500000
   -0.12500000    0.12500000   -0.50000000
   -0.12500000    0.12500000    0.62500000
   -0.12500000    0.12500000   -0.25000000
   -0.12500000    0.12500000   -0.12500000
   -0.12500000    0.25000000    0.00000000
   -0.12500000    0.25000000    0.12500000
   -0.12500000    0.25000000    0.25000000
   -0.12500000    0.25000000   -0.62500000
   -0.12500000    0.25000000   -0.50000000
   -0.12500000    0.25000000   -0.37500000
   -0.12500000   -0.75000000   -0.25000000
   -0.12500000    0.25000000   -0.12500000
   -0.12500000    0.37500000    0.00000000
   -0.12500000   -0.62500000    0.12500000
   -0.12500000   -0.62500000    0.25000000
    0.87500000    0.37500000    0.37500000
   -0.12500000    0.37500000    0.50000000
   -0.12500000    0.37500000   -0.37500000
   -0.12500000    0.37500000   -0.25000000
   -0.12500000   -0.62500000   -0.12500000
   -0.12500000    0.50000000    0.00000000
   -0.12500000   -0.50000000    0.12500000
   -0.12500000   -0.50000000    0.25000000
   -0.12500000    0.50000000    0.37500000
    0.87500000    0.50000000    0.50000000
   -0.12500000    0.50000000   -0.37500000
   -0.12500000    0.50000000   -0.25000000
   -0.12500000   -0.50000000   -0.12500000
   -0.12500000   -0.37500000    0.00000000
   -0.12500000    0.62500000    0.12500000
   -0.12500000   -0.37500000    0.25000000
   -0.12500000   -0.37500000    0.37500000
   -0.12500000   -0.37500000    0.50000000
   -0.12500000   -0.37500000   -0.37500000
   -0.12500000   -0.37500000   -0.25000000
   -0.12500000   -0.37500000   -0.12500000
   -0.12500000   -0.25000000    0.00000000
   -0.12500000   -0.25000000    0.12500000
   -0.12500000   -0.25000000   -0.75000000
   -0.12500000   -0.25000000    0.37500000
   -0.12500000   -0.25000000    0.50000000
   -0.12500000   -0.25000000   -0.37500000
   -0.12500000   -0.25000000   -0.25000000
   -0.12500000   -0.25000000   -0.12500000
   -0.12500000   -0.12500000    0.00000000
   -0.12500000   -0.12500000    0.12500000
   -0.12500000   -0.12500000    0.25000000
   -0.12500000   -0.12500000   -0.62500000
   -0.12500000   -0.12500000   -0.50000000
   -0.12500000   -0.12500000   -0.37500000
   -0.12500000   -0.12500000   -0.25000000
   -0.12500000   -0.12500000   -0.12500000
end kpoints

begin projections
     9
   0.00000    0.00000    0.00000     0  1  1
    0.0000000  0.0000000  1.0000000   1.0000000  0.0000000  0.0000000    1.00
   0.00000    0.00000    0.00000     2  1  1
    0.0000000  0.0000000  1.0000000   1.0000000  0.0000000  0.0000000    1.00
   0.00000    0.00000    0.00000     2  2  1
    0.0000000  0.0000000  1.0000000   1.0000000  0.0000000  0.0000000    1.00
   0.00000    0.00000    0.00000     2  3  1
    0.0000000  0.0000000  1.0000000   1.0000000  0.0000000  0.0000000    1.00
   0.00000    0.00000    0.00000     2  4  1
    0.0000000  0.0000000  1.0000000   1.0000000  0.0000000  0.0000000    1.00
   0.00000    0.00000    0.00000     2  5  1
    0.0000000  0.0000000  1.0000000   1.0000000  0.0000000  0.0000000    1.00
   0.50000    0.50000    0.50000     1  1  1
    0.0000000  0.0000000  1.0000000   1.0000000  0.0000000  0.0000000    1.00
   0.50000    0.50000    0.50000     1  2  1
    0.0000000  0.0000000  1.0000000   1.0000000  0.0000000  0.0000000    1.00
   0.50000    0.50000    0.50000     1  3  1
    0.0000000  0.0000000  1.0000000   1.0000000  0.0000000  0.0000000    1.00
end projections

begin nnkpts
   8
     1     2      0   0   0
     1     8      0   0   0
     1     9      0   0   0
     1    57      0   0   0
     1    65      0   0   0
     1    74      0   0   0
     1   449      0   0   0
     1   512      0   0   0
     2     1      0   0   0
     2     3      0   0   0
     2    10      0   0   0
     2    58      0   0   0
     2    66      0   0   0
     2    75      0   0   0
     2   450      0   0   0
     2   505      0   0   0
     3     2      0   0   0
     3     4      0   0   0
     3    11      0   0   0
     3    59      0   0   0
     3    67      0   0   0
     3    76      0   0   0
     3   451      0   0   0
     3   506      0   0   0
     4     3      0   0   0
     4    12      0   0   0
     4    60      0   0   0
     4    68      0   0   0
     4    77      0   0   0
     4   452      0   0   0
     4   507      0   0   0
     4     5      0   0   1
     5     6      0   0   0
     5    13      0   0   0
     5    69      0   0   0
     5   508      0   0   0
     5     4      0   0  -1
     5    61      0   0  -1
     5    78      0   0  -1
     5   453      0   0  -1
     6     5      0   0   0
     6     7      0   0   0
     6    14      0   0   0
     6    62      0   0   0
     6    70      0   0   0
     6    79      0   0   0
     6   454      0   0   0
     6   509      0   0   0
     7     6      0   0   0
     7     8      0   0   0
     7    15      0   0   0
     7    63      0   0   0
     7    71      0   0   0
     7    80      0   0   0
     7   455      0   0   0
     7   510      0   0   0
     8     1      0   0   0
     8     7      0   0   0
     8    16      0   0   0
     8    64      0   0   0
     8    72      0   0   0
     8    73      0   0   0
     8   456      0   0   0
     8   511      0   0   0
     9     1      0   0   0
     9    10      0   0   0
     9    16      0   0   0
     9    17      0   0   0
     9    73      0   0   0
     9    82      0   0   0
     9   456      0   0   0
     9   457      0   0   0
    10     2      0   0   0
    10     9      0   0   0
    10    11      0   0   0
    10    18      0   0   0
    10    74      0   0   0
    10    83      0   0   0
    10   449      0   0   0
    10   458      0   0   0
    11     3      0   0   0
    11    10      0   0   0
    11    12      0   0   0
    11    19      0   0   0
    11    75      0   0   0
    11    84      0   0   0
    11   450      0   0   0
    11   459      0   0   0
    12     4      0   0   0
    12    11      0   0   0
    12    20      0   0   0
    12    76      0   0   0
    12   451      0   0   0
    12    13      0   0   1
    12    85      0   0   1
    12   460      0   0   1
    13     5      0   0   0
    13    14      0   0   0
    13    21      0   0   0
    13    86      0   0   0
    13   461      0   0   0
    13    12      0   0  -1
    13    77      0   0  -1
    13   452      0   0  -1
    14     6      0   0   0
    14    13      0   0   0
    14    15      0   0   0
    14    22      0   0   0
    14    78      0   0  -1
    14    87      0   0  -1
    14   453      0   0  -1
    14   462      0   0  -1
    15     7      0   0   0
    15    14      0   0   0
    15    16      0   0   0
    15    23      0   0   0
    15    79      0   0   0
    15    88      0   0   0
    15   454      0   0   0
    15   463      0   0   0
    16     8      0   0   0
    16     9      0   0   0
    16    15      0   0   0
    16    24      0   0   0
    16    80      0   0   0
    16    81      0   0   0
    16   455      0   0   0
    16   464      0   0   0
    17     9      0   0   0
    17    18      0   0   0
    17    24      0   0   0
    17    25      0   0   0
    17    81      0   0   0
    17    90      0   0   0
    17   464      0   0   0
    17   465      0   0   0
    18    10      0   0   0
    18    17      0   0   0
    18    19      0   0   0
    18    26      0   0   0
    18    82      0   0   0
    18    91      0   0   0
    18   457      0   0   0
    18   466      0   0   0
    19    11      0   0   0
    19    18      0   0   0
    19    20      0   0   0
    19    27      0   0   0
    19    83      0   0   0
    19    92      0   0   0
    19   458      0   0   0
    19   467      0   0   0
    20    12      0   0   0
    20    19      0   0   0
    20    28      0   0   0
    20    84      0   0   0
    20   459      0   0   0
    20    21      0   0   1
    20    93      0   0   1
    20   468      0   0   1
    21    13      0   0   0
    21    22      0   0   0
    21    29      0   0   0
    21    85      0   0   0
    21    94      0   0   0
    21   460      0   0   0
    21   469      0   0   0
    21    20      0   0  -1
    22    14      0   0   0
    22    21      0   0   0
    22    23      0   0   0
    22    30      0   0   0
    22    86      0   0   0
    22    95      0   0   0
    22   461      0   0   0
    22   470      0   0   0
    23    15      0   0   0
    23    22      0   0   0
    23    24      0   0   0
    23    31      0   0   0
    23    96      0   1   0
    23   471      0   1   0
    23    87      0   0  -1
    23   462      0   0  -1
    24    16      0   0   0
    24    17      0   0   0
    24    23      0   0   0
    24    32      0   0   0
    24    88      0   0   0
    24    89      0   0   0
    24   463      0   0   0
    24   472      0   0   0
    25    17      0   0   0
    25    26      0   0   0
    25    32      0   0   0
    25    89      0   0   0
    25    98      0   0   0
    25   472      0   0   0
    25   473      0   0   0
    25    33      0   1   0
    26    18      0   0   0
    26    25      0   0   0
    26    27      0   0   0
    26    90      0   0   0
    26   465      0   0   0
    26    34      0   1   0
    26    99      0   1   0
    26   474      0   1   0
    27    19      0   0   0
    27    26      0   0   0
    27    28      0   0   0
    27    91      0   0   0
    27   466      0   0   0
    27    35      0   1   0
    27   100      0   1   0
    27   475      0   1   0
    28    20      0   0   0
    28    27      0   0   0
    28    92      0   0   0
    28   467      0   0   0
    28   101      1   1   1
    28    36      0   1   0
    28    29      0   0   1
    28   476     -1   0   0
    29    21      0   0   0
    29    30      0   0   0
    29    93      0   0   0
    29   468      0   0   0
    29    37      0   1   0
    29   102      0   1   0
    29    28      0   0  -1
    29   477      0   0  -1
    30    22      0   0   0
    30    29      0   0   0
    30    31      0   0   0
    30    38      0   0   0
    30    94      0   0   0
    30   103      0   0   0
    30   469      0   0   0
    30   478      0   0   0
    31    23      0   0   0
    31    30      0   0   0
    31    32      0   0   0
    31    39      0   0   0
    31    95      0   0   0
    31   104      0   0   0
    31   470      0   0   0
    31   479      0   0   0
    32    24      0   0   0
    32    25      0   0   0
    32    31      0   0   0
    32    40      0   0   0
    32    96      0   1   0
    32    97      0   1   0
    32   471      0   1   0
    32   480      0   1   0
    33    34      0   0   0
    33    41      0   0   0
    33    97      0   0   0
    33   480      0   0   0
    33    25      0  -1   0
    33    40      0  -1   0
    33   106      0  -1   0
    33   481      0  -1   0
    34    33      0   0   0
    34    35      0   0   0
    34    42      0   0   0
    34   107      0   0   0
    34   482      0   0   0
    34    26      0  -1   0
    34    98      0  -1   0
    34   473      0  -1   0
    35    34      0   0   0
    35    36      0   0   0
    35    43      0   0   0
    35    99      0   0   0
    35   108      0   0   0
    35   474      0   0   0
    35   483      0   0   0
    35    27      0  -1   0
    36    35      0   0   0
    36    44      0   0   0
    36   100      0   0   0
    36   475      0   0   0
    36    37      0   0   1
    36   109      0   0   1
    36    28      0  -1   0
    36   484      0  -1   0
    37   101      1   0   0
    37   110      1   0   0
    37    36      0   0  -1
    37    45      0   0  -1
    37    29      0  -1   0
    37    38      0  -1   0
    37   476     -1  -1  -1
    37   485     -1  -1  -1
    38    30      0   0   0
    38    39      0   0   0
    38   111      0   0   0
    38   486      0   0   0
    38    37      0   1   0
    38    46      0   1   0
    38   102      0   1   0
    38   477      0   0  -1
    39    31      0   0   0
    39    38      0   0   0
    39    40      0   0   0
    39   103      0   0   0
    39   112      0   0   0
    39   478      0   0   0
    39   487      0   0   0
    39    47      0   1   0
    40    32      0   0   0
    40    39      0   0   0
    40   104      0   0   0
    40   479      0   0   0
    40    33      0   1   0
    40    48      0   1   0
    40   105      0   1   0
    40   488      0   1   0
    41    33      0   0   0
    41    42      0   0   0
    41    48      0   0   0
    41    49      0   0   0
    41   105      0   0   0
    41   114      0   0   0
    41   488      0   0   0
    41   489      0   0   0
    42    34      0   0   0
    42    41      0   0   0
    42    43      0   0   0
    42    50      0   0   0
    42   106      0  -1   0
    42   115      0  -1   0
    42   481      0  -1   0
    42   490      0  -1   0
    43    35      0   0   0
    43    42      0   0   0
    43    44      0   0   0
    43    51      0   0   0
    43   107      0   0   0
    43   116      0   0   0
    43   482      0   0   0
    43   491      0   0   0
    44    36      0   0   0
    44    43      0   0   0
    44    45      0   0   0
    44    52      0   0   0
    44   108      0   0   0
    44   117      0   0   0
    44   483      0   0   0
    44   492      0   0   0
    45    44      0   0   0
    45    53      0   0   0
    45   118      0   0   0
    45   493      0   0   0
    45    37      0   0   1
    45    46      0   0   1
    45   109      0   0   1
    45   484      0  -1   0
    46    47      0   0   0
    46    54      0   0   0
    46   119      0   0   0
    46   494      0   0   0
    46   110      1   0   0
    46    45      0   0  -1
    46    38      0  -1   0
    46   485     -1  -1  -1
    47    46      0   0   0
    47    48      0   0   0
    47    55      0   0   0
    47   120      0   0   0
    47   495      0   0   0
    47    39      0  -1   0
    47   111      0  -1   0
    47   486      0  -1   0
    48    41      0   0   0
    48    47      0   0   0
    48    56      0   0   0
    48   113      0   0   0
    48   496      0   0   0
    48    40      0  -1   0
    48   112      0  -1   0
    48   487      0  -1   0
    49    41      0   0   0
    49    50      0   0   0
    49    56      0   0   0
    49    57      0   0   0
    49   113      0   0   0
    49   122      0   0   0
    49   496      0   0   0
    49   497      0   0   0
    50    42      0   0   0
    50    49      0   0   0
    50    51      0   0   0
    50    58      0   0   0
    50   114      0   0   0
    50   123      0   0   0
    50   489      0   0   0
    50   498      0   0   0
    51    43      0   0   0
    51    50      0   0   0
    51    52      0   0   0
    51    59      0   0   0
    51   124      0   0   1
    51   499      0   0   1
    51   115      0  -1   0
    51   490      0  -1   0
    52    44      0   0   0
    52    51      0   0   0
    52    53      0   0   0
    52    60      0   0   0
    52   116      0   0   0
    52   125      0   0   0
    52   491      0   0   0
    52   500      0   0   0
    53    45      0   0   0
    53    52      0   0   0
    53    61      0   0   0
    53   117      0   0   0
    53   126      0   0   0
    53   492      0   0   0
    53   501      0   0   0
    53    54      0   0   1
    54    46      0   0   0
    54    55      0   0   0
    54    62      0   0   0
    54   127      0   0   0
    54   502      0   0   0
    54    53      0   0  -1
    54   118      0   0  -1
    54   493      0   0  -1
    55    47      0   0   0
    55    54      0   0   0
    55    56      0   0   0
    55    63      0   0   0
    55   119      0   0   0
    55   128      0   0   0
    55   494      0   0   0
    55   503      0   0   0
    56    48      0   0   0
    56    49      0   0   0
    56    55      0   0   0
    56    64      0   0   0
    56   120      0   0   0
    56   121      0   0   0
    56   495      0   0   0
    56   504      0   0   0
    57     1      0   0   0
    57    49      0   0   0
    57    58      0   0   0
    57    64      0   0   0
    57    66      0   0   0
    57   121      0   0   0
    57   504      0   0   0
    57   505      0   0   0
    58     2      0   0   0
    58    50      0   0   0
    58    57      0   0   0
    58    59      0   0   0
    58    67      0   0   0
    58   122      0   0   0
    58   497      0   0   0
    58   506      0   0   0
    59     3      0   0   0
    59    51      0   0   0
    59    58      0   0   0
    59    60      0   0   0
    59    68      0   0   0
    59   123      0   0   0
    59   498      0   0   0
    59   507      0   0   0
    60     4      0   0   0
    60    52      0   0   0
    60    59      0   0   0
    60    61      0   0   0
    60    69      0   0   1
    60   124      0   0   1
    60   499      0   0   1
    60   508      0   0   1
    61    53      0   0   0
    61    60      0   0   0
    61   125      0   0   0
    61   500      0   0   0
    61     5      0   0   1
    61    62      0   0   1
    61    70      0   0   1
    61   509      0   0   1
    62     6      0   0   0
    62    54      0   0   0
    62    63      0   0   0
    62    71      0   0   0
    62   510      0   0   0
    62    61      0   0  -1
    62   126      0   0  -1
    62   501      0   0  -1
    63     7      0   0   0
    63    55      0   0   0
    63    62      0   0   0
    63    64      0   0   0
    63    72      0   0   0
    63   127      0   0   0
    63   502      0   0   0
    63   511      0   0   0
    64     8      0   0   0
    64    56      0   0   0
    64    57      0   0   0
    64    63      0   0   0
    64    65      0   0   0
    64   128      0   0   0
    64   503      0   0   0
    64   512      0   0   0
    65     1      0   0   0
    65    64      0   0   0
    65    66      0   0   0
    65    72      0   0   0
    65    73      0   0   0
    65   121      0   0   0
    65   129      0   0   0
    65   138      0   0   0
    66     2      0   0   0
    66    57      0   0   0
    66    65      0   0   0
    66    67      0   0   0
    66    74      0   0   0
    66   122      0   0   0
    66   130      0   0   0
    66   139      0   0   0
    67     3      0   0   0
    67    58      0   0   0
    67    66      0   0   0
    67    68      0   0   0
    67    75      0   0   0
    67   123      0   0   0
    67   131      0   0   0
    67   140      0   0   0
    68     4      0   0   0
    68    59      0   0   0
    68    67      0   0   0
    68    76      0   0   0
    68   132      0   0   0
    68    69      0   0   1
    68   124      0   0   1
    68   141      0   0   1
    69     5      0   0   0
    69    70      0   0   0
    69   133      0   0   0
    69   142      0   0   0
    69    60      0   0  -1
    69    68      0   0  -1
    69    77      0   0  -1
    69   125      0   0  -1
    70     6      0   0   0
    70    69      0   0   0
    70    71      0   0   0
    70   134      0   0   0
    70    61      0   0  -1
    70    78      0   0  -1
    70   126      0   0  -1
    70   143      0   0  -1
    71     7      0   0   0
    71    62      0   0   0
    71    70      0   0   0
    71    72      0   0   0
    71    79      0   0   0
    71   127      0   0   0
    71   135      0   0   0
    71   144      0   0   0
    72     8      0   0   0
    72    63      0   0   0
    72    65      0   0   0
    72    71      0   0   0
    72    80      0   0   0
    72   128      0   0   0
    72   136      0   0   0
    72   137      0   0   0
    73     8      0   0   0
    73     9      0   0   0
    73    65      0   0   0
    73    74      0   0   0
    73    80      0   0   0
    73    81      0   0   0
    73   137      0   0   0
    73   146      0   0   0
    74     1      0   0   0
    74    10      0   0   0
    74    66      0   0   0
    74    73      0   0   0
    74    75      0   0   0
    74    82      0   0   0
    74   138      0   0   0
    74   147      0   0   0
    75     2      0   0   0
    75    11      0   0   0
    75    67      0   0   0
    75    74      0   0   0
    75    76      0   0   0
    75    83      0   0   0
    75   139      0   0   0
    75   148      0   0   0
    76     3      0   0   0
    76    12      0   0   0
    76    68      0   0   0
    76    75      0   0   0
    76    77      0   0   0
    76    84      0   0   0
    76   140      0   0   0
    76   149      0   0   0
    77     4      0   0   0
    77    76      0   0   0
    77    78      0   0   0
    77   150      0   0   0
    77    13      0   0   1
    77    69      0   0   1
    77    85      0   0   1
    77   141      0   0   1
    78    77      0   0   0
    78   151      0   0   0
    78     5      0   0   1
    78    14      0   0   1
    78    70      0   0   1
    78    79      0   0   1
    78    86      0   0   1
    78   142      0   0   1
    79     6      0   0   0
    79    15      0   0   0
    79    71      0   0   0
    79    80      0   0   0
    79   152      0   0   0
    79    78      0   0  -1
    79    87      0   0  -1
    79   143      0   0  -1
    80     7      0   0   0
    80    16      0   0   0
    80    72      0   0   0
    80    73      0   0   0
    80    79      0   0   0
    80    88      0   0   0
    80   144      0   0   0
    80   145      0   0   0
    81    16      0   0   0
    81    17      0   0   0
    81    73      0   0   0
    81    82      0   0   0
    81    88      0   0   0
    81    89      0   0   0
    81   145      0   0   0
    81   154      0   0   0
    82     9      0   0   0
    82    18      0   0   0
    82    74      0   0   0
    82    81      0   0   0
    82    83      0   0   0
    82    90      0   0   0
    82   146      0   0   0
    82   155      0   0   0
    83    10      0   0   0
    83    19      0   0   0
    83    75      0   0   0
    83    82      0   0   0
    83    84      0   0   0
    83    91      0   0   0
    83   147      0   0   0
    83   156      0   0   0
    84    11      0   0   0
    84    20      0   0   0
    84    76      0   0   0
    84    83      0   0   0
    84    92      0   0   0
    84   148      0   0   0
    84   157      1   1   1
    84    85      0   0   1
    85    21      0   0   0
    85    86      0   0   0
    85    93      0   0   0
    85    12      0   0  -1
    85    77      0   0  -1
    85    84      0   0  -1
    85   149      0   0  -1
    85   158      0   0  -1
    86    13      0   0   0
    86    22      0   0   0
    86    85      0   0   0
    86    94      0   0   0
    86    78      0   0  -1
    86    87      0   0  -1
    86   150      0   0  -1
    86   159      0   0  -1
    87   151      0   0   0
    87   160      0   0   0
    87    14      0   0   1
    87    23      0   0   1
    87    79      0   0   1
    87    86      0   0   1
    87    88      0   0   1
    87    95      0   0   1
    88    15      0   0   0
    88    24      0   0   0
    88    80      0   0   0
    88    81      0   0   0
    88   152      0   0   0
    88   153      0   0   0
    88    96      0   1   0
    88    87      0   0  -1
    89    24      0   0   0
    89    25      0   0   0
    89    81      0   0   0
    89    90      0   0   0
    89   153      0   0   0
    89    96      0   1   0
    89    97      0   1   0
    89   162      0   1   0
    90    17      0   0   0
    90    26      0   0   0
    90    82      0   0   0
    90    89      0   0   0
    90    91      0   0   0
    90    98      0   0   0
    90   154      0   0   0
    90   163      0   0   0
    91    18      0   0   0
    91    27      0   0   0
    91    83      0   0   0
    91    90      0   0   0
    91    92      0   0   0
    91   155      0   0   0
    91   164      1   1   1
    91    99      0   1   0
    92    19      0   0   0
    92    28      0   0   0
    92    84      0   0   0
    92    91      0   0   0
    92   156      0   0   0
    92   165      1   1   1
    92   100      0   1   0
    92    93      0   0   1
    93    29      0   0   0
    93    85      0   0   0
    93    94      0   0   0
    93    20      0   0  -1
    93    92      0   0  -1
    93   101      1   1   0
    93   157      1   1   0
    93   166      1   1   0
    94    21      0   0   0
    94    30      0   0   0
    94    86      0   0   0
    94    93      0   0   0
    94    95      0   0   0
    94   102      0   1   0
    94   167      0   1   0
    94   158      0   0  -1
    95    22      0   0   0
    95    31      0   0   0
    95    94      0   0   0
    95   103      0   0   0
    95    96      0   1   0
    95   168      0   1   0
    95    87      0   0  -1
    95   159      0   0  -1
    96   161      0   0   0
    96    23      0  -1   0
    96    32      0  -1   0
    96    88      0  -1   0
    96    89      0  -1   0
    96    95      0  -1   0
    96   104      0  -1   0
    96   160      0  -1  -1
    97    33      0   0   0
    97   105      0   0   0
    97   161      0   0   0
    97    32      0  -1   0
    97    89      0  -1   0
    97    98      0  -1   0
    97   104      0  -1   0
    97   170      0  -1   0
    98    25      0   0   0
    98    90      0   0   0
    98   106      0   0   0
    98   171      0   0   0
    98    34      0   1   0
    98    97      0   1   0
    98    99      0   1   0
    98   162      0   1   0
    99    35      0   0   0
    99   100      0   0   0
    99   107      0   0   0
    99    26      0  -1   0
    99    91      0  -1   0
    99    98      0  -1   0
    99   163      0  -1   0
    99   172      0  -1   0
   100    36      0   0   0
   100    99      0   0   0
   100   108      0   0   0
   100    27      0  -1   0
   100    92      0  -1   0
   100   101      1   0   1
   100   164      1   0   1
   100   173      1   0   1
   101   165      0   0   0
   101   174      0   0   0
   101    37     -1   0   0
   101   102     -1   0   0
   101   109     -1   0   0
   101    28     -1  -1  -1
   101   100     -1   0  -1
   101    93     -1  -1   0
   102   101      1   0   0
   102   110      1   0   0
   102   166      1   0   0
   102   175      1   0   0
   102    29      0  -1   0
   102    38      0  -1   0
   102    94      0  -1   0
   102   103      0  -1   0
   103    30      0   0   0
   103    39      0   0   0
   103    95      0   0   0
   103   104      0   0   0
   103   111      0   0   0
   103   102      0   1   0
   103   167      0   1   0
   103   176      0   1   0
   104    31      0   0   0
   104    40      0   0   0
   104   103      0   0   0
   104   112      0   0   0
   104    96      0   1   0
   104    97      0   1   0
   104   168      0   1   0
   104   169      0   1   0
   105    41      0   0   0
   105    97      0   0   0
   105   113      0   0   0
   105   169      0   0   0
   105    40      0  -1   0
   105   106      0  -1   0
   105   112      0  -1   0
   105   178      0  -1   0
   106    98      0   0   0
   106   170      0   0   0
   106   179      0   0   0
   106    33      0   1   0
   106    42      0   1   0
   106   105      0   1   0
   106   107      0   1   0
   106   114      0   1   0
   107    34      0   0   0
   107    43      0   0   0
   107    99      0   0   0
   107   108      0   0   0
   107   106      0  -1   0
   107   115      0  -1   0
   107   171      0  -1   0
   107   180      0  -1   0
   108    35      0   0   0
   108    44      0   0   0
   108   100      0   0   0
   108   107      0   0   0
   108   116      0   0   0
   108   109      0   0   1
   108   181      0   0   1
   108   172      0  -1   0
   109   101      1   0   0
   109   110      1   0   0
   109   173      1   0   0
   109   182      1   0   0
   109    36      0   0  -1
   109    45      0   0  -1
   109   108      0   0  -1
   109   117      0   0  -1
   110   174      0   0   0
   110   183      0   0   0
   110    37     -1   0   0
   110    46     -1   0   0
   110   102     -1   0   0
   110   109     -1   0   0
   110   118     -1   0  -1
   110   111     -1  -1   0
   111    38      0   0   0
   111   103      0   0   0
   111   112      0   0   0
   111    47      0   1   0
   111   119      0   1   0
   111   110      1   1   0
   111   175      1   1   0
   111   184      1   1   0
   112    39      0   0   0
   112   104      0   0   0
   112   111      0   0   0
   112    48      0   1   0
   112   105      0   1   0
   112   120      0   1   0
   112   176      0   1   0
   112   177      0   1   0
   113    48      0   0   0
   113    49      0   0   0
   113   105      0   0   0
   113   114      0   0   0
   113   120      0   0   0
   113   121      0   0   0
   113   177      0   0   0
   113   186      0   0   0
   114    41      0   0   0
   114    50      0   0   0
   114   113      0   0   0
   114   122      0   0   0
   114   187      0   0   0
   114   106      0  -1   0
   114   115      0  -1   0
   114   178      0  -1   0
   115   179      0   0   0
   115    42      0   1   0
   115    51      0   1   0
   115   107      0   1   0
   115   114      0   1   0
   115   116      0   1   0
   115   123      0   1   0
   115   188      0   1   1
   116    43      0   0   0
   116    52      0   0   0
   116   108      0   0   0
   116   117      0   0   0
   116   124      0   0   1
   116   189      0   0   1
   116   115      0  -1   0
   116   180      0  -1   0
   117    44      0   0   0
   117    53      0   0   0
   117   116      0   0   0
   117   118      0   0   0
   117   125      0   0   0
   117   109      0   0   1
   117   181      0   0   1
   117   190      0   0   1
   118    45      0   0   0
   118   117      0   0   0
   118   126      0   0   0
   118    54      0   0   1
   118   119      0   0   1
   118   110      1   0   1
   118   182      1   0   1
   118   191      1   0   1
   119    46      0   0   0
   119    55      0   0   0
   119   120      0   0   0
   119   127      0   0   0
   119   192      0   0   0
   119   183      1   0   0
   119   118      0   0  -1
   119   111      0  -1   0
   120    47      0   0   0
   120    56      0   0   0
   120   113      0   0   0
   120   119      0   0   0
   120   128      0   0   0
   120   185      0   0   0
   120   184      1   0   0
   120   112      0  -1   0
   121    56      0   0   0
   121    57      0   0   0
   121    65      0   0   0
   121   113      0   0   0
   121   122      0   0   0
   121   128      0   0   0
   121   130      0   0   0
   121   185      0   0   0
   122    49      0   0   0
   122    58      0   0   0
   122    66      0   0   0
   122   114      0   0   0
   122   121      0   0   0
   122   123      0   0   0
   122   131      0   0   0
   122   186      0   0   0
   123    50      0   0   0
   123    59      0   0   0
   123    67      0   0   0
   123   122      0   0   0
   123   132      0   0   0
   123   187      0   0   0
   123   124      0   0   1
   123   115      0  -1   0
   124   133      0   0   0
   124   188      0   0   0
   124    51      0   0  -1
   124    60      0   0  -1
   124    68      0   0  -1
   124   116      0   0  -1
   124   123      0   0  -1
   124   125      0   0  -1
   125    52      0   0   0
   125    61      0   0   0
   125   117      0   0   0
   125   126      0   0   0
   125    69      0   0   1
   125   124      0   0   1
   125   134      0   0   1
   125   189      0   0   1
   126    53      0   0   0
   126   118      0   0   0
   126   125      0   0   0
   126    62      0   0   1
   126    70      0   0   1
   126   127      0   0   1
   126   135      0   0   1
   126   190      0   0   1
   127    54      0   0   0
   127    63      0   0   0
   127    71      0   0   0
   127   119      0   0   0
   127   128      0   0   0
   127   136      0   0   0
   127   191      1   0   0
   127   126      0   0  -1
   128    55      0   0   0
   128    64      0   0   0
   128    72      0   0   0
   128   120      0   0   0
   128   121      0   0   0
   128   127      0   0   0
   128   129      0   0   0
   128   192      0   0   0
   129    65      0   0   0
   129   128      0   0   0
   129   130      0   0   0
   129   136      0   0   0
   129   137      0   0   0
   129   185      0   0   0
   129   193      0   0   0
   129   202      0   0   0
   130    66      0   0   0
   130   121      0   0   0
   130   129      0   0   0
   130   131      0   0   0
   130   138      0   0   0
   130   186      0   0   0
   130   194      0   0   0
   130   203      0   0   0
   131    67      0   0   0
   131   122      0   0   0
   131   130      0   0   0
   131   132      0   0   0
   131   139      0   0   0
   131   187      0   0   0
   131   195      0   0   0
   131   204      0   0   0
   132    68      0   0   0
   132   123      0   0   0
   132   131      0   0   0
   132   140      0   0   0
   132   196      0   0   0
   132   133      0   0   1
   132   188      0   0   1
   132   205      0   0   1
   133    69      0   0   0
   133   124      0   0   0
   133   134      0   0   0
   133   141      0   0   0
   133   189      0   0   0
   133   197      0   0   0
   133   206      0   0   0
   133   132      0   0  -1
   134    70      0   0   0
   134   133      0   0   0
   134   135      0   0   0
   134   142      0   0   0
   134   190      0   0   0
   134   198      0   0   0
   134   207      0   0   0
   134   125      0   0  -1
   135    71      0   0   0
   135   134      0   0   0
   135   136      0   0   0
   135   199      0   0   0
   135   191      1   0   0
   135   208      1   0   0
   135   126      0   0  -1
   135   143      0   0  -1
   136    72      0   0   0
   136   127      0   0   0
   136   129      0   0   0
   136   135      0   0   0
   136   144      0   0   0
   136   192      0   0   0
   136   200      0   0   0
   136   201      0   0   0
   137    72      0   0   0
   137    73      0   0   0
   137   129      0   0   0
   137   138      0   0   0
   137   144      0   0   0
   137   145      0   0   0
   137   201      0   0   0
   137   210      0   0   0
   138    65      0   0   0
   138    74      0   0   0
   138   130      0   0   0
   138   137      0   0   0
   138   139      0   0   0
   138   146      0   0   0
   138   202      0   0   0
   138   211      0   0   0
   139    66      0   0   0
   139    75      0   0   0
   139   131      0   0   0
   139   138      0   0   0
   139   140      0   0   0
   139   147      0   0   0
   139   203      0   0   0
   139   212      0   0   0
   140    67      0   0   0
   140    76      0   0   0
   140   132      0   0   0
   140   139      0   0   0
   140   148      0   0   0
   140   204      0   0   0
   140   213      1   1   1
   140   141      0   0   1
   141   133      0   0   0
   141   142      0   0   0
   141   205      0   0   0
   141    68      0   0  -1
   141    77      0   0  -1
   141   140      0   0  -1
   141   149      0   0  -1
   141   214      0   0  -1
   142    69      0   0   0
   142   134      0   0   0
   142   141      0   0   0
   142   206      0   0   0
   142    78      0   0  -1
   142   143      0   0  -1
   142   150      0   0  -1
   142   215      0   0  -1
   143   151      0   0   0
   143    70      0   0   1
   143    79      0   0   1
   143   135      0   0   1
   143   142      0   0   1
   143   144      0   0   1
   143   207      0   0   1
   143   216      1   0   1
   144    71      0   0   0
   144    80      0   0   0
   144   136      0   0   0
   144   137      0   0   0
   144   152      0   0   0
   144   209      0   0   0
   144   208      1   0   0
   144   143      0   0  -1
   145    80      0   0   0
   145    81      0   0   0
   145   137      0   0   0
   145   146      0   0   0
   145   152      0   0   0
   145   153      0   0   0
   145   209      0   0   0
   145   218      0   0   0
   146    73      0   0   0
   146    82      0   0   0
   146   138      0   0   0
   146   145      0   0   0
   146   147      0   0   0
   146   154      0   0   0
   146   210      0   0   0
   146   219      0   0   0
   147    74      0   0   0
   147    83      0   0   0
   147   139      0   0   0
   147   146      0   0   0
   147   148      0   0   0
   147   155      0   0   0
   147   211      0   0   0
   147   220      0   0   0
   148    75      0   0   0
   148    84      0   0   0
   148   140      0   0   0
   148   147      0   0   0
   148   149      0   0   0
   148   156      0   0   0
   148   212      0   0   0
   148   221      0   0   0
   149    76      0   0   0
   149   148      0   0   0
   149   150      0   0   0
   149   222      0   0   0
   149   157      1   1   1
   149   213      1   1   1
   149    85      0   0   1
   149   141      0   0   1
   150    77      0   0   0
   150   149      0   0   0
   150   151      0   0   0
   150   158      0   0   0
   150   214      0   0   0
   150   223      0   0   0
   150    86      0   0   1
   150   142      0   0   1
   151    78      0   0   0
   151    87      0   0   0
   151   143      0   0   0
   151   150      0   0   0
   151   159      0   0   0
   151   215      0   0   0
   151   224      0   0   0
   151   152      0   0   1
   152    79      0   0   0
   152    88      0   0   0
   152   144      0   0   0
   152   145      0   0   0
   152   217      0   0   0
   152   216      1   0   0
   152   151      0   0  -1
   152   160      0   0  -1
   153    88      0   0   0
   153    89      0   0   0
   153   145      0   0   0
   153   154      0   0   0
   153   217      0   0   0
   153   161      0   1   0
   153   226      0   1   0
   153   160      0   0  -1
   154    81      0   0   0
   154    90      0   0   0
   154   146      0   0   0
   154   153      0   0   0
   154   155      0   0   0
   154   218      0   0   0
   154   227      1   1   1
   154   162      0   1   0
   155    82      0   0   0
   155    91      0   0   0
   155   147      0   0   0
   155   154      0   0   0
   155   156      0   0   0
   155   163      0   0   0
   155   219      0   0   0
   155   228      0   0   0
   156    83      0   0   0
   156    92      0   0   0
   156   148      0   0   0
   156   155      0   0   0
   156   220      0   0   0
   156   157      1   1   1
   156   164      1   1   1
   156   229      1   1   1
   157   165      0   0   0
   157   230      0   0   0
   157    84     -1  -1  -1
   157   149     -1  -1  -1
   157   156     -1  -1  -1
   157   158     -1  -1  -1
   157   221     -1  -1  -1
   157    93     -1  -1   0
   158   150      0   0   0
   158   159      0   0   0
   158   222      0   0   0
   158   231      0   0   0
   158   157      1   1   1
   158   166      1   1   1
   158    85      0   0   1
   158    94      0   0   1
   159   151      0   0   0
   159   158      0   0   0
   159   160      0   0   0
   159   223      0   0   0
   159   232      1   1   1
   159    86      0   0   1
   159    95      0   0   1
   159   167      0   1   1
   160    87      0   0   0
   160   159      0   0   0
   160   224      0   0   0
   160   152      0   0   1
   160   153      0   0   1
   160    96      0   1   1
   160   168      0   1   1
   160   225      0   1   1
   161    96      0   0   0
   161    97      0   0   0
   161   162      0   0   0
   161   168      0   0   0
   161   169      0   0   0
   161   225      0   0   0
   161   234      0   0   0
   161   153      0  -1   0
   162   161      0   0   0
   162   226      0   0   0
   162    89      0  -1   0
   162    98      0  -1   0
   162   154      0  -1   0
   162   163      0  -1   0
   162   170      0  -1   0
   162   235      0  -1   0
   163    90      0   0   0
   163   155      0   0   0
   163   171      0   0   0
   163   236      0   0   0
   163   164      1   1   1
   163   227      1   1   1
   163    99      0   1   0
   163   162      0   1   0
   164   165      0   0   0
   164   237      0   0   0
   164    91     -1  -1  -1
   164   156     -1  -1  -1
   164   163     -1  -1  -1
   164   172     -1  -1  -1
   164   228     -1  -1  -1
   164   100     -1   0  -1
   165   101      0   0   0
   165   157      0   0   0
   165   164      0   0   0
   165   166      0   0   0
   165   173      0   0   0
   165   229      0   0   0
   165   238      0   0   0
   165    92     -1  -1  -1
   166   165      0   0   0
   166   174      0   0   0
   166   230      0   0   0
   166   239      0   0   0
   166   102     -1   0   0
   166   167     -1   0   0
   166   158     -1  -1  -1
   166    93     -1  -1   0
   167   168      0   0   0
   167   240      0   0   0
   167   166      1   0   0
   167   175      1   0   0
   167    94      0  -1   0
   167   103      0  -1   0
   167   159      0  -1  -1
   167   231      0  -1  -1
   168   161      0   0   0
   168   167      0   0   0
   168   176      0   0   0
   168   233      0   0   0
   168   232      1   0   0
   168    95      0  -1   0
   168   104      0  -1   0
   168   160      0  -1  -1
   169   105      0   0   0
   169   161      0   0   0
   169   176      0   0   0
   169   177      0   0   0
   169   233      0   0   0
   169   242      0   0   0
   169   104      0  -1   0
   169   170      0  -1   0
   170   106      0   0   0
   170   171      0   0   0
   170   178      0   0   0
   170   243      0   0   0
   170    97      0   1   0
   170   162      0   1   0
   170   169      0   1   0
   170   234      0   1   0
   171    98      0   0   0
   171   163      0   0   0
   171   170      0   0   0
   171   172      0   0   0
   171   179      0   0   0
   171   235      0   0   0
   171   244      0   0   0
   171   107      0   1   0
   172   171      0   0   0
   172   180      0   0   0
   172   236      0   0   0
   172   245      0   0   0
   172   164      1   1   1
   172   173      1   1   1
   172    99      0   1   0
   172   108      0   1   0
   173   165      0   0   0
   173   174      0   0   0
   173   237      0   0   0
   173   246      0   0   0
   173   109     -1   0   0
   173   181     -1   0   0
   173   172     -1  -1  -1
   173   100     -1   0  -1
   174   101      0   0   0
   174   110      0   0   0
   174   166      0   0   0
   174   173      0   0   0
   174   175      0   0   0
   174   182      0   0   0
   174   238      0   0   0
   174   247      0   0   0
   175   174      0   0   0
   175   183      0   0   0
   175   239      0   0   0
   175   248      0   0   0
   175   102     -1   0   0
   175   167     -1   0   0
   175   176     -1   0   0
   175   111     -1  -1   0
   176   168      0   0   0
   176   169      0   0   0
   176   240      0   0   0
   176   241      0   0   0
   176   175      1   0   0
   176   184      1   0   0
   176   103      0  -1   0
   176   112      0  -1   0
   177   113      0   0   0
   177   169      0   0   0
   177   185      0   0   0
   177   241      0   0   0
   177   184      1   0   0
   177   250      1   0   0
   177   112      0  -1   0
   177   178      0  -1   0
   178   170      0   0   0
   178   179      0   0   0
   178   251      0   0   0
   178   105      0   1   0
   178   114      0   1   0
   178   177      0   1   0
   178   186      0   1   0
   178   242      0   1   0
   179   106      0   0   0
   179   115      0   0   0
   179   171      0   0   0
   179   178      0   0   0
   179   180      0   0   0
   179   243      0   0   0
   179   252      0   0   0
   179   187      0   1   0
   180   172      0   0   0
   180   179      0   0   0
   180   244      0   0   0
   180   107      0   1   0
   180   116      0   1   0
   180   253      0   1   0
   180   181      0   1   1
   180   188      0   1   1
   181   189      0   0   0
   181   254      0   0   0
   181   173      1   0   0
   181   182      1   0   0
   181   108      0   0  -1
   181   117      0   0  -1
   181   180      0  -1  -1
   181   245      0  -1  -1
   182   174      0   0   0
   182   183      0   0   0
   182   246      0   0   0
   182   255      0   0   0
   182   109     -1   0   0
   182   181     -1   0   0
   182   190     -1   0   0
   182   118     -1   0  -1
   183   110      0   0   0
   183   175      0   0   0
   183   182      0   0   0
   183   184      0   0   0
   183   191      0   0   0
   183   247      0   0   0
   183   256      0   0   0
   183   119     -1   0   0
   184   183      0   0   0
   184   248      0   0   0
   184   120     -1   0   0
   184   176     -1   0   0
   184   177     -1   0   0
   184   192     -1   0   0
   184   249     -1   0   0
   184   111     -1  -1   0
   185   120      0   0   0
   185   121      0   0   0
   185   129      0   0   0
   185   177      0   0   0
   185   186      0   0   0
   185   192      0   0   0
   185   194      0   0   0
   185   249      0   0   0
   186   113      0   0   0
   186   122      0   0   0
   186   130      0   0   0
   186   185      0   0   0
   186   187      0   0   0
   186   195      0   0   0
   186   250      1   0   0
   186   178      0  -1   0
   187   114      0   0   0
   187   123      0   0   0
   187   131      0   0   0
   187   186      0   0   0
   187   196      0   0   0
   187   188      0   0   1
   187   179      0  -1   0
   187   251      0  -1   0
   188   124      0   0   0
   188   189      0   0   0
   188   197      0   0   0
   188   132      0   0  -1
   188   187      0   0  -1
   188   115      0  -1  -1
   188   180      0  -1  -1
   188   252      0  -1  -1
   189   133      0   0   0
   189   181      0   0   0
   189   188      0   0   0
   189   190      0   0   0
   189   198      0   0   0
   189   116      0   0  -1
   189   125      0   0  -1
   189   253      0   0  -1
   190   134      0   0   0
   190   189      0   0   0
   190   199      0   0   0
   190   254      0   0   0
   190   182      1   0   0
   190   191      1   0   0
   190   117      0   0  -1
   190   126      0   0  -1
   191   183      0   0   0
   191   255      0   0   0
   191   127     -1   0   0
   191   135     -1   0   0
   191   190     -1   0   0
   191   192     -1   0   0
   191   200     -1   0   0
   191   118     -1   0  -1
   192   119      0   0   0
   192   128      0   0   0
   192   136      0   0   0
   192   185      0   0   0
   192   193      0   0   0
   192   184      1   0   0
   192   191      1   0   0
   192   256      1   0   0
   193   129      0   0   0
   193   192      0   0   0
   193   194      0   0   0
   193   200      0   0   0
   193   201      0   0   0
   193   249      0   0   0
   193   266      0   0   0
   193   257      1   0   0
   194   130      0   0   0
   194   185      0   0   0
   194   193      0   0   0
   194   195      0   0   0
   194   202      0   0   0
   194   250      1   0   0
   194   258      1   0   0
   194   267      1   0   0
   195   131      0   0   0
   195   186      0   0   0
   195   194      0   0   0
   195   196      0   0   0
   195   203      0   0   0
   195   268      1   1   1
   195   259      1   0   0
   195   251      0  -1   0
   196   132      0   0   0
   196   187      0   0   0
   196   195      0   0   0
   196   204      0   0   0
   196   269      1   1   1
   196   260      1   0   0
   196   197      0   0   1
   196   252      0  -1   0
   197   133      0   0   0
   197   188      0   0   0
   197   198      0   0   0
   197   205      0   0   0
   197   270      1   0   0
   197   196      0   0  -1
   197   253      0   0  -1
   197   261      0   0  -1
   198   134      0   0   0
   198   189      0   0   0
   198   197      0   0   0
   198   199      0   0   0
   198   206      0   0   0
   198   254      0   0   0
   198   262      0   0   0
   198   271      0   0   0
   199   135      0   0   0
   199   190      0   0   0
   199   198      0   0   0
   199   200      0   0   0
   199   207      0   0   0
   199   263      0   0   0
   199   272      0   0   0
   199   255      1   0   0
   200   136      0   0   0
   200   193      0   0   0
   200   199      0   0   0
   200   264      0   0   0
   200   191      1   0   0
   200   208      1   0   0
   200   256      1   0   0
   200   265      1   0   0
   201   136      0   0   0
   201   137      0   0   0
   201   193      0   0   0
   201   202      0   0   0
   201   209      0   0   0
   201   208      1   0   0
   201   265      1   0   0
   201   274      1   0   0
   202   129      0   0   0
   202   138      0   0   0
   202   194      0   0   0
   202   201      0   0   0
   202   203      0   0   0
   202   210      0   0   0
   202   266      0   0   0
   202   275      0   0   0
   203   130      0   0   0
   203   139      0   0   0
   203   195      0   0   0
   203   202      0   0   0
   203   204      0   0   0
   203   211      0   0   0
   203   276      1   1   1
   203   267      1   0   0
   204   131      0   0   0
   204   140      0   0   0
   204   196      0   0   0
   204   203      0   0   0
   204   212      0   0   0
   204   268      1   1   1
   204   277      1   1   1
   204   205      0   0   1
   205   141      0   0   0
   205   197      0   0   0
   205   206      0   0   0
   205   132      0   0  -1
   205   204      0   0  -1
   205   213      1   1   0
   205   269      1   1   0
   205   278      1   1   0
   206   133      0   0   0
   206   142      0   0   0
   206   198      0   0   0
   206   205      0   0   0
   206   207      0   0   0
   206   270      1   0   0
   206   279      1   0   0
   206   214      0   0  -1
   207   134      0   0   0
   207   199      0   0   0
   207   206      0   0   0
   207   271      0   0   0
   207   208      1   0   0
   207   280      1   0   0
   207   143      0   0  -1
   207   215      0   0  -1
   208   216      0   0   0
   208   273      0   0   0
   208   135     -1   0   0
   208   144     -1   0   0
   208   200     -1   0   0
   208   201     -1   0   0
   208   207     -1   0   0
   208   272     -1   0   0
   209   144      0   0   0
   209   145      0   0   0
   209   201      0   0   0
   209   210      0   0   0
   209   217      0   0   0
   209   216      1   0   0
   209   273      1   0   0
   209   282      1   0   0
   210   137      0   0   0
   210   146      0   0   0
   210   202      0   0   0
   210   209      0   0   0
   210   211      0   0   0
   210   218      0   0   0
   210   283      1   1   1
   210   274      1   0   0
   211   138      0   0   0
   211   147      0   0   0
   211   203      0   0   0
   211   210      0   0   0
   211   212      0   0   0
   211   219      0   0   0
   211   275      0   0   0
   211   284      0   0   0
   212   139      0   0   0
   212   148      0   0   0
   212   204      0   0   0
   212   211      0   0   0
   212   220      0   0   0
   212   213      1   1   1
   212   276      1   1   1
   212   285      1   1   1
   213   277      0   0   0
   213   286      0   0   0
   213   140     -1  -1  -1
   213   149     -1  -1  -1
   213   212     -1  -1  -1
   213   214     -1  -1  -1
   213   221     -1  -1  -1
   213   205     -1  -1   0
   214   150      0   0   0
   214   215      0   0   0
   214   222      0   0   0
   214   287      0   0   0
   214   213      1   1   1
   214   278      1   1   1
   214   141      0   0   1
   214   206      0   0   1
   215   151      0   0   0
   215   214      0   0   0
   215   223      0   0   0
   215   288      1   1   1
   215   142      0   0   1
   215   207      0   0   1
   215   216      1   0   1
   215   279      1   0   1
   216   208      0   0   0
   216   280      0   0   0
   216   281      0   0   0
   216   152     -1   0   0
   216   209     -1   0   0
   216   143     -1   0  -1
   216   215     -1   0  -1
   216   224     -1   0  -1
   217   152      0   0   0
   217   153      0   0   0
   217   209      0   0   0
   217   218      0   0   0
   217   290      1   1   1
   217   281      1   0   0
   217   225      0   1   0
   217   224      0   0  -1
   218   145      0   0   0
   218   154      0   0   0
   218   210      0   0   0
   218   217      0   0   0
   218   219      0   0   0
   218   291      1   1   1
   218   282      1   0   0
   218   226      0   1   0
   219   146      0   0   0
   219   155      0   0   0
   219   211      0   0   0
   219   218      0   0   0
   219   220      0   0   0
   219   227      1   1   1
   219   283      1   1   1
   219   292      1   1   1
   220   147      0   0   0
   220   156      0   0   0
   220   212      0   0   0
   220   219      0   0   0
   220   221      0   0   0
   220   228      0   0   0
   220   284      0   0   0
   220   293      0   0   0
   221   148      0   0   0
   221   220      0   0   0
   221   222      0   0   0
   221   294      0   0   0
   221   157      1   1   1
   221   213      1   1   1
   221   229      1   1   1
   221   285      1   1   1
   222   149      0   0   0
   222   158      0   0   0
   222   214      0   0   0
   222   221      0   0   0
   222   223      0   0   0
   222   295      0   0   0
   222   230      1   1   1
   222   286      1   1   1
   223   150      0   0   0
   223   159      0   0   0
   223   215      0   0   0
   223   222      0   0   0
   223   224      0   0   0
   223   231      0   0   0
   223   287      0   0   0
   223   296      0   0   0
   224   151      0   0   0
   224   160      0   0   0
   224   223      0   0   0
   224   232      1   1   1
   224   288      1   1   1
   224   289      1   1   1
   224   217      0   0   1
   224   216      1   0   1
   225   161      0   0   0
   225   226      0   0   0
   225   233      0   0   0
   225   232      1   0   0
   225   289      1   0   0
   225   217      0  -1   0
   225   298      0  -1   0
   225   160      0  -1  -1
   226   162      0   0   0
   226   225      0   0   0
   226   234      0   0   0
   226   153      0  -1   0
   226   218      0  -1   0
   226   227      1   0   1
   226   290      1   0   1
   226   299      1   0   1
   227   291      0   0   0
   227   154     -1  -1  -1
   227   163     -1  -1  -1
   227   219     -1  -1  -1
   227   228     -1  -1  -1
   227   235     -1  -1  -1
   227   300     -1  -1  -1
   227   226     -1   0  -1
   228   155      0   0   0
   228   220      0   0   0
   228   236      0   0   0
   228   301      0   0   0
   228   164      1   1   1
   228   227      1   1   1
   228   229      1   1   1
   228   292      1   1   1
   229   165      0   0   0
   229   230      0   0   0
   229   237      0   0   0
   229   302      0   0   0
   229   156     -1  -1  -1
   229   221     -1  -1  -1
   229   228     -1  -1  -1
   229   293     -1  -1  -1
   230   157      0   0   0
   230   166      0   0   0
   230   229      0   0   0
   230   238      0   0   0
   230   222     -1  -1  -1
   230   231     -1  -1  -1
   230   294     -1  -1  -1
   230   303     -1  -1  -1
   231   158      0   0   0
   231   223      0   0   0
   231   295      0   0   0
   231   230      1   1   1
   231   232      1   1   1
   231   239      1   1   1
   231   167      0   1   1
   231   304      0   1   1
   232   168     -1   0   0
   232   225     -1   0   0
   232   240     -1   0   0
   232   297     -1   0   0
   232   159     -1  -1  -1
   232   224     -1  -1  -1
   232   231     -1  -1  -1
   232   296     -1  -1  -1
   233   168      0   0   0
   233   169      0   0   0
   233   225      0   0   0
   233   234      0   0   0
   233   240      0   0   0
   233   241      0   0   0
   233   297      0   0   0
   233   306      0   0   0
   234   161      0   0   0
   234   226      0   0   0
   234   233      0   0   0
   234   242      0   0   0
   234   307      0   0   0
   234   170      0  -1   0
   234   235      0  -1   0
   234   298      0  -1   0
   235   171      0   0   0
   235   236      0   0   0
   235   243      0   0   0
   235   308      0   0   0
   235   227      1   1   1
   235   299      1   1   1
   235   162      0   1   0
   235   234      0   1   0
   236   163      0   0   0
   236   172      0   0   0
   236   228      0   0   0
   236   235      0   0   0
   236   244      0   0   0
   236   300      0   0   0
   236   309      0   0   0
   236   237      1   1   1
   237   164      0   0   0
   237   173      0   0   0
   237   229      0   0   0
   237   238      0   0   0
   237   236     -1  -1  -1
   237   245     -1  -1  -1
   237   301     -1  -1  -1
   237   310     -1  -1  -1
   238   165      0   0   0
   238   174      0   0   0
   238   230      0   0   0
   238   237      0   0   0
   238   239      0   0   0
   238   246      0   0   0
   238   302      0   0   0
   238   311      0   0   0
   239   166      0   0   0
   239   175      0   0   0
   239   238      0   0   0
   239   247      0   0   0
   239   240     -1   0   0
   239   312     -1   0   0
   239   231     -1  -1  -1
   239   303     -1  -1  -1
   240   167      0   0   0
   240   176      0   0   0
   240   233      0   0   0
   240   304      0   0   0
   240   305      0   0   0
   240   232      1   0   0
   240   239      1   0   0
   240   248      1   0   0
   241   176      0   0   0
   241   177      0   0   0
   241   233      0   0   0
   241   242      0   0   0
   241   249      0   0   0
   241   305      0   0   0
   241   248      1   0   0
   241   314      1   0   0
   242   169      0   0   0
   242   234      0   0   0
   242   241      0   0   0
   242   306      0   0   0
   242   250      1   0   0
   242   315      1   0   0
   242   178      0  -1   0
   242   243      0  -1   0
   243   170      0   0   0
   243   179      0   0   0
   243   235      0   0   0
   243   244      0   0   0
   243   251      0   0   0
   243   242      0   1   0
   243   307      0   1   0
   243   316      0   1   0
   244   171      0   0   0
   244   180      0   0   0
   244   236      0   0   0
   244   243      0   0   0
   244   245      0   0   0
   244   252      0   0   0
   244   308      0   0   0
   244   317      0   0   0
   245   172      0   0   0
   245   244      0   0   0
   245   309      0   0   0
   245   318      0   0   0
   245   237      1   1   1
   245   246      1   1   1
   245   253      0   1   0
   245   181      0   1   1
   246   173      0   0   0
   246   182      0   0   0
   246   238      0   0   0
   246   247      0   0   0
   246   254     -1   0   0
   246   319     -1   0   0
   246   245     -1  -1  -1
   246   310     -1  -1  -1
   247   174      0   0   0
   247   183      0   0   0
   247   239      0   0   0
   247   246      0   0   0
   247   248      0   0   0
   247   255      0   0   0
   247   311      0   0   0
   247   320      0   0   0
   248   175      0   0   0
   248   184      0   0   0
   248   247      0   0   0
   248   256      0   0   0
   248   240     -1   0   0
   248   241     -1   0   0
   248   312     -1   0   0
   248   313     -1   0   0
   249   185      0   0   0
   249   193      0   0   0
   249   241      0   0   0
   249   313      0   0   0
   249   184      1   0   0
   249   250      1   0   0
   249   256      1   0   0
   249   258      1   0   0
   250   259      0   0   0
   250   314      0   0   0
   250   177     -1   0   0
   250   186     -1   0   0
   250   194     -1   0   0
   250   242     -1   0   0
   250   249     -1   0   0
   250   251     -1  -1   0
   251   178      0   0   0
   251   243      0   0   0
   251   252      0   0   0
   251   187      0   1   0
   251   195      0   1   0
   251   250      1   1   0
   251   260      1   1   0
   251   315      1   1   0
   252   179      0   0   0
   252   244      0   0   0
   252   251      0   0   0
   252   196      0   1   0
   252   253      0   1   0
   252   261      0   1   0
   252   316      0   1   0
[...]
   424   360      0   0   0
   424   417      0   0   0
   424   351      0   1   0
   424   416      0   1   0
   424   423      0   1   0
   424   432      0   1   0
   424   488      0   1   0
   424   489      0   1   0
   425   361      0   0   0
   425   432      0   0   0
   425   433      0   0   0
   425   489      0   0   0
   425   498      0   0   0
   425   426      0   0   1
   425   360      0  -1   0
   425   417      0  -1   0
   426   362      0   0   0
   426   427      0   0   0
   426   499      0   0   0
   426   425      0   0  -1
   426   434      0   0  -1
   426   353      0  -1  -1
   426   418      0  -1  -1
   426   490      0  -1  -1
   427   363      0   0   0
   427   426      0   0   0
   427   428      0   0   0
   427   435      0   0   0
   427   491      0   0  -1
   427   500      0   0  -1
   427   354     -1  -1  -1
   427   419      0  -1  -1
   428   355      0   0   0
   428   364      0   0   0
   428   427      0   0   0
   428   436      0   0   0
   428   492      0   0  -1
   428   501      0   0  -1
   428   420     -1  -1  -1
   428   429     -1  -1  -1
   429   356      0   0   0
   429   421      0   0   0
   429   365      1   1   1
   429   428      1   1   1
   429   430      1   1   1
   429   437      1   1   1
   429   502      1   1   1
   429   493      1   1   0
   430   366      0   0   0
   430   431      0   0   0
   430   438      0   0   0
   430   494      0   0   0
   430   503      0   0   0
   430   357     -1  -1  -1
   430   422     -1  -1  -1
   430   429     -1  -1  -1
   431   358      0   0   0
   431   367      0   0   0
   431   423      0   0   0
   431   430      0   0   0
   431   432      0   0   0
   431   439      0   0   0
   431   495      0   0   0
   431   504      0   0   0
   432   368      0   0   0
   432   425      0   0   0
   432   431      0   0   0
   432   440      0   0   0
   432   496      0   0   0
   432   497      0   0   0
   432   424      0  -1   0
   432   359     -1  -1  -1
   433   368      0   0   0
   433   369      0   0   0
   433   425      0   0   0
   433   434      0   0   0
   433   440      0   0   0
   433   441      0   0   0
   433   497      0   0   0
   433   506      0   0   0
   434   361      0   0   0
   434   433      0   0   0
   434   442      0   0   0
   434   498      0   0   0
   434   507      0   0   0
   434   426      0   0   1
   434   435      0   0   1
   434   370     -1   0   0
   435   362      0   0   0
   435   371      0   0   0
   435   427      0   0   0
   435   436      0   0   0
   435   443      0   0   0
   435   499      0   0   0
   435   508      0   0   0
   435   434      0   0  -1
   436   363      0   0   0
   436   372      0   0   0
   436   428      0   0   0
   436   435      0   0   0
   436   437      0   0   0
   436   509      0   0   0
   436   444      0   0  -1
   436   500      0   0  -1
   437   364      0   0   0
   437   436      0   0   0
   437   438      0   0   0
   437   510      0   0   0
   437   445      0   0  -1
   437   501      0   0  -1
   437   373     -1  -1  -1
   437   429     -1  -1  -1
   438   365      0   0   0
   438   374      0   0   0
   438   430      0   0   0
   438   437      0   0   0
   438   439      0   0   0
   438   446      0   0   0
   438   502      0   0   0
   438   511      0   0   0
   439   366      0   0   0
   439   375      0   0   0
   439   431      0   0   0
   439   438      0   0   0
   439   440      0   0   0
   439   447      0   0   0
   439   503      0   0   0
   439   512      0   0   0
   440   367      0   0   0
   440   376      0   0   0
   440   432      0   0   0
   440   433      0   0   0
   440   439      0   0   0
   440   448      0   0   0
   440   504      0   0   0
   440   505      0   0   0
   441   376      0   0   0
   441   377      0   0   0
   441   385      0   0   0
   441   433      0   0   0
   441   442      0   0   0
   441   448      0   0   0
   441   450      0   0   0
   441   505      0   0   0
   442   369      0   0   0
   442   386      0   0   0
   442   434      0   0   0
   442   441      0   0   0
   442   451      0   0   0
   442   506      0   0   0
   442   443      0   0   1
   442   378     -1   0   0
   443   435      0   0   0
   443   379      0   0  -1
   443   387      0   0  -1
   443   442      0   0  -1
   443   444      0   0  -1
   443   452      0   0  -1
   443   507      0   0  -1
   443   370     -1   0  -1
   444   380      0   0   0
   444   388      0   0   0
   444   445      0   0   0
   444   453      0   0   0
   444   371      0   0   1
   444   436      0   0   1
   444   443      0   0   1
   444   508      0   0   1
   445   381      0   0   0
   445   389      0   0   0
   445   444      0   0   0
   445   372      0   0   1
   445   437      0   0   1
   445   446      0   0   1
   445   454      0   0   1
   445   509      0   0   1
   446   382      0   0   0
   446   390      0   0   0
   446   438      0   0   0
   446   447      0   0   0
   446   455      0   0   0
   446   510      0   0   0
   446   445      0   0  -1
   446   373     -1  -1  -1
   447   374      0   0   0
   447   383      0   0   0
   447   391      0   0   0
   447   439      0   0   0
   447   446      0   0   0
   447   448      0   0   0
   447   456      0   0   0
   447   511      0   0   0
   448   375      0   0   0
   448   384      0   0   0
   448   392      0   0   0
   448   440      0   0   0
   448   441      0   0   0
   448   447      0   0   0
   448   449      0   0   0
   448   512      0   0   0
   449     1      0   0   0
   449    10      0   0   0
   449   385      0   0   0
   449   448      0   0   0
   449   450      0   0   0
   449   456      0   0   0
   449   457      0   0   0
   449   505      0   0   0
   450     2      0   0   0
   450    11      0   0   0
   450   386      0   0   0
   450   441      0   0   0
   450   449      0   0   0
   450   451      0   0   0
   450   458      0   0   0
   450   506      0   0   0
   451     3      0   0   0
   451    12      0   0   0
   451   387      0   0   0
   451   442      0   0   0
   451   450      0   0   0
   451   452      0   0   0
   451   459      0   0   0
   451   507      0   0   0
   452     4      0   0   0
   452   388      0   0   0
   452   451      0   0   0
   452   453      0   0   0
   452    13      0   0   1
   452   443      0   0   1
   452   460      0   0   1
   452   508      0   0   1
   453   389      0   0   0
   453   444      0   0   0
   453   452      0   0   0
   453     5      0   0   1
   453    14      0   0   1
   453   454      0   0   1
   453   461      0   0   1
   453   509      0   0   1
   454     6      0   0   0
   454    15      0   0   0
   454   390      0   0   0
   454   455      0   0   0
   454   510      0   0   0
   454   445      0   0  -1
   454   453      0   0  -1
   454   462      0   0  -1
   455     7      0   0   0
   455    16      0   0   0
   455   391      0   0   0
   455   446      0   0   0
   455   454      0   0   0
   455   456      0   0   0
   455   463      0   0   0
   455   511      0   0   0
   456     8      0   0   0
   456     9      0   0   0
   456   392      0   0   0
   456   447      0   0   0
   456   449      0   0   0
   456   455      0   0   0
   456   464      0   0   0
   456   512      0   0   0
   457     9      0   0   0
   457    18      0   0   0
   457   392      0   0   0
   457   393      0   0   0
   457   449      0   0   0
   457   458      0   0   0
   457   464      0   0   0
   457   465      0   0   0
   458    10      0   0   0
   458    19      0   0   0
   458   385      0   0   0
   458   394      0   0   0
   458   450      0   0   0
   458   457      0   0   0
   458   459      0   0   0
   458   466      0   0   0
   459    11      0   0   0
   459    20      0   0   0
   459   386      0   0   0
   459   451      0   0   0
   459   458      0   0   0
   459   467      0   0   0
   459   460      0   0   1
   459   395     -1   0   0
   460    21      0   0   0
   460   461      0   0   0
   460   468      0   0   0
   460    12      0   0  -1
   460   387      0   0  -1
   460   396      0   0  -1
   460   452      0   0  -1
   460   459      0   0  -1
   461    13      0   0   0
   461    22      0   0   0
   461   460      0   0   0
   461   469      0   0   0
   461   388      0   0  -1
   461   397      0   0  -1
   461   453      0   0  -1
   461   462      0   0  -1
   462   389      0   0   0
   462   398      0   0   0
   462    14      0   0   1
   462    23      0   0   1
   462   454      0   0   1
   462   461      0   0   1
   462   463      0   0   1
   462   470      0   0   1
   463    15      0   0   0
   463    24      0   0   0
   463   390      0   0   0
   463   399      0   0   0
   463   455      0   0   0
   463   464      0   0   0
   463   471      0   1   0
   463   462      0   0  -1
   464    16      0   0   0
   464    17      0   0   0
   464   391      0   0   0
   464   400      0   0   0
   464   456      0   0   0
   464   457      0   0   0
   464   463      0   0   0
   464   472      0   0   0
   465    17      0   0   0
   465    26      0   0   0
   465   400      0   0   0
   465   401      0   0   0
   465   457      0   0   0
   465   466      0   0   0
   465   472      0   0   0
   465   473      0   0   0
   466    18      0   0   0
   466    27      0   0   0
   466   393      0   0   0
   466   458      0   0   0
   466   465      0   0   0
   466   467      0   0   0
   466   474      0   1   0
   466   402     -1   0   0
   467    19      0   0   0
   467    28      0   0   0
   467   394      0   0   0
   467   459      0   0   0
   467   466      0   0   0
   467   475      0   1   0
   467   468      0   0   1
   467   403     -1   0   0
   468    29      0   0   0
   468   460      0   0   0
   468   469      0   0   0
   468    20      0   0  -1
   468   467      0   0  -1
   468   395     -1   0  -1
   468   404     -1   0  -1
   468   476     -1   0  -1
   469    21      0   0   0
   469    30      0   0   0
   469   461      0   0   0
   469   468      0   0   0
   469   470      0   0   0
   469   396      0   0  -1
   469   405      0   0  -1
   469   477      0   0  -1
   470    22      0   0   0
   470    31      0   0   0
   470   469      0   0   0
   470   478      0   0   0
   470   406      0   1   0
   470   471      0   1   0
   470   397      0   0  -1
   470   462      0   0  -1
   471   407      0   0   0
   471    23      0  -1   0
   471    32      0  -1   0
   471   463      0  -1   0
   471   470      0  -1   0
   471   472      0  -1   0
   471   479      0  -1   0
   471   398      0  -1  -1
   472    24      0   0   0
   472    25      0   0   0
   472   399      0   0   0
   472   464      0   0   0
   472   465      0   0   0
   472   408      0   1   0
   472   471      0   1   0
   472   480      0   1   0
   473    25      0   0   0
   473   409      0   0   0
   473   465      0   0   0
   473   481      0   0   0
   473    34      0   1   0
   473   408      0   1   0
   473   474      0   1   0
   473   480      0   1   0
   474    35      0   0   0
   474   475      0   0   0
   474   482      0   0   0
   474    26      0  -1   0
   474   401      0  -1   0
   474   410      0  -1   0
   474   466      0  -1   0
   474   473      0  -1   0
   475    36      0   0   0
   475   474      0   0   0
   475   483      0   0   0
   475    27      0  -1   0
   475   467      0  -1   0
   475   402     -1  -1   0
   475   411     -1  -1   0
   475   476     -1  -1   0
   476   403      0   0   0
   476   412      0   0   0
   476    37      1   1   1
   476    28      1   0   0
   476   477      1   0   0
   476   484      1   0   0
   476   475      1   1   0
   476   468      1   0   1
   477    29      0   0   1
   477    38      0   0   1
   477   469      0   0   1
   477   478      0   0   1
   477   404     -1   0   0
   477   413     -1   0   0
   477   476     -1   0   0
   477   485     -1   0   0
   478    30      0   0   0
   478    39      0   0   0
   478   470      0   0   0
   478   479      0   0   0
   478   486      0   0   0
   478   414      0   1   0
   478   405      0   0  -1
   478   477      0   0  -1
   479    31      0   0   0
   479    40      0   0   0
   479   478      0   0   0
   479   487      0   0   0
   479   406      0   1   0
   479   415      0   1   0
   479   471      0   1   0
   479   480      0   1   0
   480    33      0   0   0
   480   407      0   0   0
   480   416      0   0   0
   480   488      0   0   0
   480    32      0  -1   0
   480   472      0  -1   0
   480   473      0  -1   0
   480   479      0  -1   0
   481   417      0   0   0
   481   473      0   0   0
   481    33      0   1   0
   481    42      0   1   0
   481   416      0   1   0
   481   482      0   1   0
   481   488      0   1   0
   481   489      0   1   0
   482    34      0   0   0
   482    43      0   0   0
   482   474      0   0   0
   482   483      0   0   0
   482   409      0  -1   0
   482   418      0  -1   0
   482   481      0  -1   0
   482   490      0  -1   0
   483    35      0   0   0
   483    44      0   0   0
   483   475      0   0   0
   483   482      0   0   0
   483   491      0   0   0
   483   410      0  -1   0
   483   419      0  -1   0
   483   484      0  -1   0
   484    36      0   1   0
   484    45      0   1   0
   484   483      0   1   0
   484   492      0   1   0
   484   411     -1   0   0
   484   420     -1   0   0
   484   476     -1   0   0
   484   485     -1   0   0
   485   412      0   0   0
   485   421      0   0   0
   485    37      1   1   1
   485    46      1   1   1
   485   477      1   0   0
   485   484      1   0   0
   485   493      1   1   0
   485   486      1   0   1
   486    38      0   0   0
   486   478      0   0   0
   486   487      0   0   0
   486    47      0   1   0
   486   494      0   1   0
   486   413     -1   0  -1
   486   422     -1   0  -1
   486   485     -1   0  -1
   487    39      0   0   0
   487   479      0   0   0
   487   486      0   0   0
   487    48      0   1   0
   487   414      0   1   0
   487   423      0   1   0
   487   488      0   1   0
   487   495      0   1   0
   488    41      0   0   0
   488   415      0   0   0
   488   480      0   0   0
   488   496      0   0   0
   488    40      0  -1   0
   488   424      0  -1   0
   488   481      0  -1   0
   488   487      0  -1   0
   489    41      0   0   0
   489    50      0   0   0
   489   425      0   0   0
   489   496      0   0   0
   489   497      0   0   0
   489   424      0  -1   0
   489   481      0  -1   0
   489   490      0  -1   0
   490   417      0   0   0
   490    42      0   1   0
   490    51      0   1   0
   490   482      0   1   0
   490   489      0   1   0
   490   491      0   1   0
   490   498      0   1   0
   490   426      0   1   1
   491    43      0   0   0
   491    52      0   0   0
   491   483      0   0   0
   491   492      0   0   0
   491   427      0   0   1
   491   499      0   0   1
   491   418      0  -1   0
   491   490      0  -1   0
   492    44      0   0   0
   492    53      0   0   0
   492   491      0   0   0
   492   493      0   0   0
   492   500      0   0   0
   492   428      0   0   1
   492   419      0  -1   0
   492   484      0  -1   0
   493    45      0   0   0
   493   492      0   0   0
   493   501      0   0   0
   493    54      0   0   1
   493   494      0   0   1
   493   420     -1  -1   0
   493   429     -1  -1   0
   493   485     -1  -1   0
   494    46      0   0   0
   494    55      0   0   0
   494   430      0   0   0
   494   495      0   0   0
   494   502      0   0   0
   494   493      0   0  -1
   494   486      0  -1   0
   494   421     -1  -1  -1
   495    47      0   0   0
   495    56      0   0   0
   495   431      0   0   0
   495   494      0   0   0
   495   496      0   0   0
   495   503      0   0   0
   495   487      0  -1   0
   495   422     -1  -1  -1
   496    48      0   0   0
   496    49      0   0   0
   496   423      0   0   0
   496   432      0   0   0
   496   488      0   0   0
   496   489      0   0   0
   496   495      0   0   0
   496   504      0   0   0
   497    49      0   0   0
   497    58      0   0   0
   497   432      0   0   0
   497   433      0   0   0
   497   489      0   0   0
   497   498      0   0   0
   497   504      0   0   0
   497   505      0   0   0
   498    50      0   0   0
   498    59      0   0   0
   498   425      0   0   0
   498   434      0   0   0
   498   497      0   0   0
   498   506      0   0   0
   498   499      0   0   1
   498   490      0  -1   0
   499   426      0   0   0
   499   435      0   0   0
   499    51      0   0  -1
   499    60      0   0  -1
   499   491      0   0  -1
   499   498      0   0  -1
   499   500      0   0  -1
   499   507      0   0  -1
   500    52      0   0   0
   500    61      0   0   0
   500   492      0   0   0
   500   501      0   0   0
   500   427      0   0   1
   500   436      0   0   1
   500   499      0   0   1
   500   508      0   0   1
   501    53      0   0   0
   501   493      0   0   0
   501   500      0   0   0
   501    62      0   0   1
   501   428      0   0   1
   501   437      0   0   1
   501   502      0   0   1
   501   509      0   0   1
   502    54      0   0   0
   502    63      0   0   0
   502   438      0   0   0
   502   494      0   0   0
   502   503      0   0   0
   502   510      0   0   0
   502   501      0   0  -1
   502   429     -1  -1  -1
   503    55      0   0   0
   503    64      0   0   0
   503   430      0   0   0
   503   439      0   0   0
   503   495      0   0   0
   503   502      0   0   0
   503   504      0   0   0
   503   511      0   0   0
   504    56      0   0   0
   504    57      0   0   0
   504   431      0   0   0
   504   440      0   0   0
   504   496      0   0   0
   504   497      0   0   0
   504   503      0   0   0
   504   512      0   0   0
   505     2      0   0   0
   505    57      0   0   0
   505   440      0   0   0
   505   441      0   0   0
   505   449      0   0   0
   505   497      0   0   0
   505   506      0   0   0
   505   512      0   0   0
   506     3      0   0   0
   506    58      0   0   0
   506   433      0   0   0
   506   442      0   0   0
   506   450      0   0   0
   506   498      0   0   0
   506   505      0   0   0
   506   507      0   0   0
   507     4      0   0   0
   507    59      0   0   0
   507   434      0   0   0
   507   451      0   0   0
   507   506      0   0   0
   507   443      0   0   1
   507   499      0   0   1
   507   508      0   0   1
   508     5      0   0   0
   508   435      0   0   0
   508   509      0   0   0
   508    60      0   0  -1
   508   444      0   0  -1
   508   452      0   0  -1
   508   500      0   0  -1
   508   507      0   0  -1
   509     6      0   0   0
   509   436      0   0   0
   509   508      0   0   0
   509   510      0   0   0
   509    61      0   0  -1
   509   445      0   0  -1
   509   453      0   0  -1
   509   501      0   0  -1
   510     7      0   0   0
   510    62      0   0   0
   510   437      0   0   0
   510   446      0   0   0
   510   454      0   0   0
   510   502      0   0   0
   510   509      0   0   0
   510   511      0   0   0
   511     8      0   0   0
   511    63      0   0   0
   511   438      0   0   0
   511   447      0   0   0
   511   455      0   0   0
   511   503      0   0   0
   511   510      0   0   0
   511   512      0   0   0
   512     1      0   0   0
   512    64      0   0   0
   512   439      0   0   0
   512   448      0   0   0
   512   456      0   0   0
   512   504      0   0   0
   512   505      0   0   0
   512   511      0   0   0
end nnkpts

begin exclude_bands
   0
end exclude_bands
